LAMMPS data file. CGCMM style. atom_style full generated by VMD/TopoTools v1.8 on Sat Jan 16 19:03:50 PST 2021
 14702 atoms
 16554 bonds
 29625 angles
 50760 dihedrals
 5379 impropers
 19 atom types
 17 bond types
 26 angle types
 23 dihedral types
 7 improper types
 0.024501 38.464500  xlo xhi
 -0.268002 94.131000  ylo yhi
 -0.002499 40.173500  zlo zhi

 Masses

 1 16.000000 # 1
 2 19.000000 # 10
 3 16.000000 # 2
 4 12.010000 # 3
 5 12.010000 # 4
 6 1.008000 # 5
 7 6.941000 # 6
 8 30.969999 # 7
 9 19.000000 # 8
 10 19.000000 # 9
 11 12.010700 # C
 12 12.010700 # C1
 13 12.010700 # Cc
 14 12.010700 # Csa
 15 12.010700 # Csb
 16 1.007940  # H
 17 1.007940  # H1
 18 16.000000 # O1
 19 16.000000 # O2

Pair Coeffs

1  0.17000000010548533 3.0000123432245225
2  0.06099999986147358 3.118145514092048
3  0.20999999984182244 2.9599219016446874
4  0.10939999991572773 3.399669508450741
5  0.08600000012835884 3.399669507944831
6  0.01570000009846142 2.4713530426421655
7  0.1031400003034657 2.5700646216979743
8  0.19999999984963962 3.7310838316594728
9  0.06099999986147358 3.118145514092048
10 0.06099999986147358 3.118145514092048
11 0.086 3.39967            # C >>ca
12 0.086 3.39967            # C1 >>c
13 0.086 3.39967            # Cc>>ca
14 0.086 3.39967            # Csa>>ca
15 0.086 3.39967            # Csb>> ca
16 0.0150 2.59964245953       # H >>ha
17 0.0000 0.0                 # H1 >>ho
18 0.2104 3.06647338784       # O1 >> oh
19 0.2100 2.95992190115       # O2 >> o

Bond Coeffs

1  301.5 1.439   # 1-3
2  411.3 1.343   # 1-4
3  248.6 1.586   # 10-7
4  648.0 1.214   # 2-4
5  303.1 1.535   # 3-3
6  335.9 1.093   # 3-5
7  248.6 1.586   # 7-8
8  248.6 1.586   # 7-9
9  478.4 1.3870      # C-C
10 478.4 1.3870      # C-Cc
11 349.7 1.4870      # C1-Csb
12 466.4 1.3060      # C1-O1
13 648.0 1.2140      # C1-O2
14 478.4 1.3870      # Cc-Csa
15 478.4 1.3870      # Cc-Csb
16 344.3 1.0870      # Csa-H
17 369.6 0.9740      # H1-O1

Angle Coeffs

1  46.36 110.07004711602929  # 1-3-3
2  50.84 108.82004686678859  # 1-3-5
3  76.45 111.38004750557609  # 1-4-1
4  75.93 123.33005291353435  # 1-4-2
5  44.0 180.00007714362235   # 10-7-10
6  44.0 90.00003857181117  #f1-p5-f3 # 10-7-8
7  44.0 90.00003857181117  #f2-p5-f3 # 10-7-9
8  63.63 115.1400492316122   #c3-os-c  # 3-1-4
9  46.36 110.07004711602929  #c3-c3-h1 # 3-3-5
10 39.18 109.55004723694461  #h1-c3-h1 #  5-3-5
11 44.0 180.00007714362235   #f2-p5-f2 #  8-7-8
12 44.0 90.00003857181117    #f1-p5-f2 #  8-7-9
13 44.0 180.00007714362235   #f1-p5-f1 #  9-7-9
14 67.18 119.97       # C-C-C
15 67.18 119.97       # C-C-Cc
16 67.18 119.97       # C-Cc-Csa
17 67.18 119.97       # C-Cc-Csb
18 64.64 120.14       # C1-Csb-Cc
19 51.19 107.37       # C1-O1-H1
20 67.18 119.97       # Cc-Csa-Cc
21 48.46 120.01       # Cc-Csa-H
22 67.18 119.97       # Cc-Csb-Cc
23 67.18 119.97       #  Csa-Cc-Csb
24 70.11 113.44       #  Csb-C1-O1
25 68.67 123.44       #  Csb-C1-O2
26 77.38 122.88       #  O1-C1-O2

Dihedral Coeffs

1  2 0.144 3 0.0 1.175 2 0.0     #os-c3-c3-os  1-3-3-1
2  2 0.0 3 0.0 0.25 1 0.0        #os-c3-c3-os  1-3-3-5 didn't find this from gaff.dat
3  1 2.7 2 180                   #os-c-os-c3   3-1-4-1
4  2 2.7 2 180.0 1.4 1 180.0     #c3-os-c-o 3-1-4-2
5  2 0.383 3 0.0 0.8 1 180.0     #c-os-c3-c3 4-1-3-3
6  1 0.383 3 0.0                 #c-os-c3-h1 4-1-3-5
7  1 0.156 3 0.0                 #h1-c3-c3-h1 5-3-3-5
8  1 3.625 2 180.0               #C-C-C-C
9  1 3.625 2 180.0               #C-C-C-Cc
10 1 3.625 2 180.0               # C-C-Cc-Csa
11 1 3.625 2 180.0               # C-C-Cc-Csb
12 1 3.625 2 180.0               # C-Cc-Csa-Cc
13 1 3.625 2 180.0               # C-Cc-Csa-H
14 1 3.625 2 180.0               # C-Cc-Csb-C1
15 1 3.625 2 180.0               # C-Cc-Csb-Cc
16 1 3.625 2 180                 #Csa-Cc-Csb-C1
17 1 3.625 2 180                 #Csa-Cc-Csb-Cc
18 1 2.300 2 180                 #Csb-C1-O1-H1
19 1 3.625 2 180                 #Csb-Cc-Csa-Cc
20 1 3.625 2 180                 #Csb-Cc-Csa-H
21 1 1.000 2 180                 #O1-C1-Csb-Cc
22 1 1.000 2 180                 #O2-C1-Csb-Cc
23 1 1.900 1 0.0                 #O2-C1-O1-H1

Improper Coeffs

1  1.1 -1 2     # 2-1-4-1
2  1.1 -1 2     # C-C-C-C
3  1.1 -1 2     # C-C-C-Cc
4  1.1 -1 2     # C1-Cc-Csb-Cc
5  1.1 -1 2     # Cc-Cc-Csa-H
6  1.1 -1 2     # Csb-Cc-Csa-C
7  10.5 -1 2    #O2-C1-O1-Csb

 Atoms # full

1 1 14 0.193733 3.600000 3.020000 3.350000 # Csa SUR
2 1 15 -0.423568 2.400000 3.020000 0.000000 # Csb SUR
3 1 15 -0.423568 1.200000 3.020000 3.350000 # Csb SUR
4 1 14 0.193733 0.000000 3.020000 0.000000 # Csa SUR
5 1 13 0.192597 3.600000 3.720000 0.000000 # Cc SUR
6 1 13 0.192597 2.400000 3.720000 3.350000 # Cc SUR
7 1 13 0.192597 1.200000 3.720000 0.000000 # Cc SUR
8 1 13 0.192597 0.000000 3.720000 3.350000 # Cc SUR
9 1 11 0.000000 3.600000 5.100000 0.000000 # C SUR
10 1 11 0.000000 2.400000 5.100000 3.350000 # C SUR
11 1 11 0.000000 1.200000 5.100000 0.000000 # C SUR
12 1 11 0.000000 0.000000 5.100000 3.350000 # C SUR
13 1 11 0.000000 3.600000 5.800000 3.350000 # C SUR
14 1 11 0.000000 2.400000 5.800000 0.000000 # C SUR
15 1 11 0.000000 1.200000 5.800000 3.350000 # C SUR
16 1 11 0.000000 0.000000 5.800000 0.000000 # C SUR
17 1 11 0.000000 3.600000 7.190000 3.350000 # C SUR
18 1 11 0.000000 2.400000 7.190000 0.000000 # C SUR
19 1 11 0.000000 1.200000 7.190000 3.350000 # C SUR
20 1 11 0.000000 0.000000 7.190000 0.000000 # C SUR
21 1 11 0.000000 3.600000 7.880000 0.000000 # C SUR
22 1 11 0.000000 2.400000 7.880000 3.350000 # C SUR
23 1 11 0.000000 1.200000 7.880000 0.000000 # C SUR
24 1 11 0.000000 0.000000 7.880000 3.350000 # C SUR
25 1 11 0.000000 3.600000 9.260000 0.000000 # C SUR
26 1 11 0.000000 2.400000 9.260000 3.350000 # C SUR
27 1 11 0.000000 1.200000 9.260000 0.000000 # C SUR
28 1 11 0.000000 0.000000 9.260000 3.350000 # C SUR
29 1 11 0.000000 3.600000 9.960000 3.350000 # C SUR
30 1 11 0.000000 2.400000 9.960000 0.000000 # C SUR
31 1 11 0.000000 1.200000 9.960000 3.350000 # C SUR
32 1 11 0.000000 0.000000 9.960000 0.000000 # C SUR
33 1 11 0.000000 3.600000 11.350000 3.350000 # C SUR
34 1 11 0.000000 2.400000 11.350000 0.000000 # C SUR
35 1 11 0.000000 1.200000 11.350000 3.350000 # C SUR
36 1 11 0.000000 0.000000 11.350000 0.000000 # C SUR
37 1 11 0.000000 3.600000 12.040000 0.000000 # C SUR
38 1 11 0.000000 2.400000 12.040000 3.350000 # C SUR
39 1 11 0.000000 1.200000 12.040000 0.000000 # C SUR
40 1 11 0.000000 0.000000 12.040000 3.350000 # C SUR
41 1 11 0.000000 3.600000 13.430000 0.000000 # C SUR
42 1 11 0.000000 2.400000 13.430000 3.350000 # C SUR
43 1 11 0.000000 1.200000 13.430000 0.000000 # C SUR
44 1 11 0.000000 0.000000 13.430000 3.350000 # C SUR
45 1 11 0.000000 3.600000 14.120000 3.350000 # C SUR
46 1 11 0.000000 2.400000 14.120000 0.000000 # C SUR
47 1 11 0.000000 1.200000 14.120000 3.350000 # C SUR
48 1 11 0.000000 0.000000 14.120000 0.000000 # C SUR
49 1 11 0.000000 3.600000 15.509999 3.350000 # C SUR
50 1 11 0.000000 2.400000 15.509999 0.000000 # C SUR
51 1 11 0.000000 1.200000 15.509999 3.350000 # C SUR
52 1 11 0.000000 0.000000 15.509999 0.000000 # C SUR
53 1 11 0.000000 3.600000 16.200001 0.000000 # C SUR
54 1 11 0.000000 2.400000 16.200001 3.350000 # C SUR
55 1 11 0.000000 1.200000 16.200001 0.000000 # C SUR
56 1 11 0.000000 0.000000 16.200001 3.350000 # C SUR
57 1 11 0.000000 3.600000 17.590000 0.000000 # C SUR
58 1 11 0.000000 2.400000 17.590000 3.350000 # C SUR
59 1 11 0.000000 1.200000 17.590000 0.000000 # C SUR
60 1 11 0.000000 0.000000 17.590000 3.350000 # C SUR
61 1 11 0.000000 3.600000 18.280001 3.350000 # C SUR
62 1 11 0.000000 2.400000 18.280001 0.000000 # C SUR
63 1 11 0.000000 1.200000 18.280001 3.350000 # C SUR
64 1 11 0.000000 0.000000 18.280001 0.000000 # C SUR
65 1 11 0.000000 3.600000 19.670000 3.350000 # C SUR
66 1 11 0.000000 2.400000 19.670000 0.000000 # C SUR
67 1 11 0.000000 1.200000 19.670000 3.350000 # C SUR
68 1 11 0.000000 0.000000 19.670000 0.000000 # C SUR
69 1 11 0.000000 3.600000 20.359999 0.000000 # C SUR
70 1 11 0.000000 2.400000 20.359999 3.350000 # C SUR
71 1 11 0.000000 1.200000 20.359999 0.000000 # C SUR
72 1 11 0.000000 0.000000 20.359999 3.350000 # C SUR
73 1 11 0.000000 3.600000 21.750000 0.000000 # C SUR
74 1 11 0.000000 2.400000 21.750000 3.350000 # C SUR
75 1 11 0.000000 1.200000 21.750000 0.000000 # C SUR
76 1 11 0.000000 0.000000 21.750000 3.350000 # C SUR
77 1 11 0.000000 3.600000 22.439999 3.350000 # C SUR
78 1 11 0.000000 2.400000 22.439999 0.000000 # C SUR
79 1 11 0.000000 1.200000 22.439999 3.350000 # C SUR
80 1 11 0.000000 0.000000 22.439999 0.000000 # C SUR
81 1 11 0.000000 3.600000 23.830000 3.350000 # C SUR
82 1 11 0.000000 2.400000 23.830000 0.000000 # C SUR
83 1 11 0.000000 1.200000 23.830000 3.350000 # C SUR
84 1 11 0.000000 0.000000 23.830000 0.000000 # C SUR
85 1 11 0.000000 3.600000 24.520000 0.000000 # C SUR
86 1 11 0.000000 2.400000 24.520000 3.350000 # C SUR
87 1 11 0.000000 1.200000 24.520000 0.000000 # C SUR
88 1 11 0.000000 0.000000 24.520000 3.350000 # C SUR
89 1 13 0.192597 3.600000 25.910000 0.000000 # Cc SUR
90 1 13 0.192597 2.400000 25.910000 3.350000 # Cc SUR
91 1 13 0.192597 1.200000 25.910000 0.000000 # Cc SUR
92 1 13 0.192597 0.000000 25.910000 3.350000 # Cc SUR
93 1 14 0.193733 3.600000 26.600000 3.350000 # Csa SUR
94 1 15 -0.423568 2.400000 26.600000 0.000000 # Csb SUR
95 1 15 -0.423568 1.200000 26.600000 3.350000 # Csb SUR
96 1 14 0.193733 0.000000 26.600000 0.000000 # Csa SUR
97 1 16 0.193733 3.610000 1.950000 3.350000 # H SUR
98 1 16 0.193733 0.000000 1.950000 0.000000 # H SUR
99 1 16 0.193733 3.610000 27.670000 3.350000 # H SUR
100 1 16 0.193733 0.000000 27.670000 0.000000 # H SUR
101 1 12 0.778966 2.400000 28.140001 0.000000 # C1 SUR
102 1 19 -0.557296 3.340000 28.930000 0.000000 # O2 SUR
103 1 18 -0.612087 1.150000 28.659998 0.000000 # O1 SUR
104 1 17 0.398235 1.170000 29.629999 0.000000 # H1 SUR
105 1 12 0.778966 1.200000 28.140001 3.350000 # C1 SUR
106 1 19 -0.557296 0.260000 28.930000 3.350000 # O2 SUR
107 1 18 -0.612087 2.460000 28.659998 3.350000 # O1 SUR
108 1 17 0.398235 2.430000 29.629999 3.350000 # H1 SUR
109 1 12 0.778966 2.400000 1.480000 0.000000 # C1 SUR
110 1 19 -0.557296 1.460000 0.690000 0.000000 # O2 SUR
111 1 18 -0.612087 3.660000 0.970000 0.000000 # O1 SUR
112 1 17 0.398235 3.630000 0.000000 0.000000 # H1 SUR
113 1 12 0.778966 1.200000 1.480000 3.350000 # C1 SUR
114 1 19 -0.557296 2.140000 0.690000 3.350000 # O2 SUR
115 1 18 -0.612087 -0.050000 0.970000 3.350000 # O1 SUR
116 1 17 0.398235 -0.030000 0.000000 3.350000 # H1 SUR
117 1 14 0.193733 3.600000 3.020000 10.039999 # Csa SUR
118 1 15 -0.423568 2.400000 3.020000 6.700000 # Csb SUR
119 1 15 -0.423568 1.200000 3.020000 10.039999 # Csb SUR
120 1 14 0.193733 0.000000 3.020000 6.700000 # Csa SUR
121 1 13 0.192597 3.600000 3.720000 6.700000 # Cc SUR
122 1 13 0.192597 2.400000 3.720000 10.039999 # Cc SUR
123 1 13 0.192597 1.200000 3.720000 6.700000 # Cc SUR
124 1 13 0.192597 0.000000 3.720000 10.039999 # Cc SUR
125 1 11 0.000000 3.600000 5.100000 6.700000 # C SUR
126 1 11 0.000000 2.400000 5.100000 10.039999 # C SUR
127 1 11 0.000000 1.200000 5.100000 6.700000 # C SUR
128 1 11 0.000000 0.000000 5.100000 10.039999 # C SUR
129 1 11 0.000000 3.600000 5.800000 10.039999 # C SUR
130 1 11 0.000000 2.400000 5.800000 6.700000 # C SUR
131 1 11 0.000000 1.200000 5.800000 10.039999 # C SUR
132 1 11 0.000000 0.000000 5.800000 6.700000 # C SUR
133 1 11 0.000000 3.600000 7.190000 10.039999 # C SUR
134 1 11 0.000000 2.400000 7.190000 6.700000 # C SUR
135 1 11 0.000000 1.200000 7.190000 10.039999 # C SUR
136 1 11 0.000000 0.000000 7.190000 6.700000 # C SUR
137 1 11 0.000000 3.600000 7.880000 6.700000 # C SUR
138 1 11 0.000000 2.400000 7.880000 10.039999 # C SUR
139 1 11 0.000000 1.200000 7.880000 6.700000 # C SUR
140 1 11 0.000000 0.000000 7.880000 10.039999 # C SUR
141 1 11 0.000000 3.600000 9.260000 6.700000 # C SUR
142 1 11 0.000000 2.400000 9.260000 10.039999 # C SUR
143 1 11 0.000000 1.200000 9.260000 6.700000 # C SUR
144 1 11 0.000000 0.000000 9.260000 10.039999 # C SUR
145 1 11 0.000000 3.600000 9.960000 10.039999 # C SUR
146 1 11 0.000000 2.400000 9.960000 6.700000 # C SUR
147 1 11 0.000000 1.200000 9.960000 10.039999 # C SUR
148 1 11 0.000000 0.000000 9.960000 6.700000 # C SUR
149 1 11 0.000000 3.600000 11.350000 10.039999 # C SUR
150 1 11 0.000000 2.400000 11.350000 6.700000 # C SUR
151 1 11 0.000000 1.200000 11.350000 10.039999 # C SUR
152 1 11 0.000000 0.000000 11.350000 6.700000 # C SUR
153 1 11 0.000000 3.600000 12.040000 6.700000 # C SUR
154 1 11 0.000000 2.400000 12.040000 10.039999 # C SUR
155 1 11 0.000000 1.200000 12.040000 6.700000 # C SUR
156 1 11 0.000000 0.000000 12.040000 10.039999 # C SUR
157 1 11 0.000000 3.600000 13.430000 6.700000 # C SUR
158 1 11 0.000000 2.400000 13.430000 10.039999 # C SUR
159 1 11 0.000000 1.200000 13.430000 6.700000 # C SUR
160 1 11 0.000000 0.000000 13.430000 10.039999 # C SUR
161 1 11 0.000000 3.600000 14.120000 10.039999 # C SUR
162 1 11 0.000000 2.400000 14.120000 6.700000 # C SUR
163 1 11 0.000000 1.200000 14.120000 10.039999 # C SUR
164 1 11 0.000000 0.000000 14.120000 6.700000 # C SUR
165 1 11 0.000000 3.600000 15.509999 10.039999 # C SUR
166 1 11 0.000000 2.400000 15.509999 6.700000 # C SUR
167 1 11 0.000000 1.200000 15.509999 10.039999 # C SUR
168 1 11 0.000000 0.000000 15.509999 6.700000 # C SUR
169 1 11 0.000000 3.600000 16.200001 6.700000 # C SUR
170 1 11 0.000000 2.400000 16.200001 10.039999 # C SUR
171 1 11 0.000000 1.200000 16.200001 6.700000 # C SUR
172 1 11 0.000000 0.000000 16.200001 10.039999 # C SUR
173 1 11 0.000000 3.600000 17.590000 6.700000 # C SUR
174 1 11 0.000000 2.400000 17.590000 10.039999 # C SUR
175 1 11 0.000000 1.200000 17.590000 6.700000 # C SUR
176 1 11 0.000000 0.000000 17.590000 10.039999 # C SUR
177 1 11 0.000000 3.600000 18.280001 10.039999 # C SUR
178 1 11 0.000000 2.400000 18.280001 6.700000 # C SUR
179 1 11 0.000000 1.200000 18.280001 10.039999 # C SUR
180 1 11 0.000000 0.000000 18.280001 6.700000 # C SUR
181 1 11 0.000000 3.600000 19.670000 10.039999 # C SUR
182 1 11 0.000000 2.400000 19.670000 6.700000 # C SUR
183 1 11 0.000000 1.200000 19.670000 10.039999 # C SUR
184 1 11 0.000000 0.000000 19.670000 6.700000 # C SUR
185 1 11 0.000000 3.600000 20.359999 6.700000 # C SUR
186 1 11 0.000000 2.400000 20.359999 10.039999 # C SUR
187 1 11 0.000000 1.200000 20.359999 6.700000 # C SUR
188 1 11 0.000000 0.000000 20.359999 10.039999 # C SUR
189 1 11 0.000000 3.600000 21.750000 6.700000 # C SUR
190 1 11 0.000000 2.400000 21.750000 10.039999 # C SUR
191 1 11 0.000000 1.200000 21.750000 6.700000 # C SUR
192 1 11 0.000000 0.000000 21.750000 10.039999 # C SUR
193 1 11 0.000000 3.600000 22.439999 10.039999 # C SUR
194 1 11 0.000000 2.400000 22.439999 6.700000 # C SUR
195 1 11 0.000000 1.200000 22.439999 10.039999 # C SUR
196 1 11 0.000000 0.000000 22.439999 6.700000 # C SUR
197 1 11 0.000000 3.600000 23.830000 10.039999 # C SUR
198 1 11 0.000000 2.400000 23.830000 6.700000 # C SUR
199 1 11 0.000000 1.200000 23.830000 10.039999 # C SUR
200 1 11 0.000000 0.000000 23.830000 6.700000 # C SUR
201 1 11 0.000000 3.600000 24.520000 6.700000 # C SUR
202 1 11 0.000000 2.400000 24.520000 10.039999 # C SUR
203 1 11 0.000000 1.200000 24.520000 6.700000 # C SUR
204 1 11 0.000000 0.000000 24.520000 10.039999 # C SUR
205 1 13 0.192597 3.600000 25.910000 6.700000 # Cc SUR
206 1 13 0.192597 2.400000 25.910000 10.039999 # Cc SUR
207 1 13 0.192597 1.200000 25.910000 6.700000 # Cc SUR
208 1 13 0.192597 0.000000 25.910000 10.039999 # Cc SUR
209 1 14 0.193733 3.600000 26.600000 10.039999 # Csa SUR
210 1 15 -0.423568 2.400000 26.600000 6.700000 # Csb SUR
211 1 15 -0.423568 1.200000 26.600000 10.039999 # Csb SUR
212 1 14 0.193733 0.000000 26.600000 6.700000 # Csa SUR
213 1 16 0.193733 3.610000 1.950000 10.039999 # H SUR
214 1 16 0.193733 0.000000 1.950000 6.700000 # H SUR
215 1 16 0.193733 3.610000 27.670000 10.039999 # H SUR
216 1 16 0.193733 0.000000 27.670000 6.700000 # H SUR
217 1 12 0.778966 2.400000 28.140001 6.700000 # C1 SUR
218 1 19 -0.557296 3.340000 28.930000 6.700000 # O2 SUR
219 1 18 -0.612087 1.150000 28.659998 6.700000 # O1 SUR
220 1 17 0.398235 1.170000 29.629999 6.700000 # H1 SUR
221 1 12 0.778966 1.200000 28.140001 10.039999 # C1 SUR
222 1 19 -0.557296 0.260000 28.930000 10.039999 # O2 SUR
223 1 18 -0.612087 2.460000 28.659998 10.039999 # O1 SUR
224 1 17 0.398235 2.430000 29.629999 10.039999 # H1 SUR
225 1 12 0.778966 2.400000 1.480000 6.700000 # C1 SUR
226 1 19 -0.557296 1.460000 0.690000 6.700000 # O2 SUR
227 1 18 -0.612087 3.660000 0.970000 6.700000 # O1 SUR
228 1 17 0.398235 3.630000 0.000000 6.700000 # H1 SUR
229 1 12 0.778966 1.200000 1.480000 10.039999 # C1 SUR
230 1 19 -0.557296 2.140000 0.690000 10.039999 # O2 SUR
231 1 18 -0.612087 -0.050000 0.970000 10.039999 # O1 SUR
232 1 17 0.398235 -0.030000 0.000000 10.039999 # H1 SUR
233 1 14 0.193733 3.600000 3.020000 16.740000 # Csa SUR
234 1 15 -0.423568 2.400000 3.020000 13.389999 # Csb SUR
235 1 15 -0.423568 1.200000 3.020000 16.740000 # Csb SUR
236 1 14 0.193733 0.000000 3.020000 13.389999 # Csa SUR
237 1 13 0.192597 3.600000 3.720000 13.389999 # Cc SUR
238 1 13 0.192597 2.400000 3.720000 16.740000 # Cc SUR
239 1 13 0.192597 1.200000 3.720000 13.389999 # Cc SUR
240 1 13 0.192597 0.000000 3.720000 16.740000 # Cc SUR
241 1 11 0.000000 3.600000 5.100000 13.389999 # C SUR
242 1 11 0.000000 2.400000 5.100000 16.740000 # C SUR
243 1 11 0.000000 1.200000 5.100000 13.389999 # C SUR
244 1 11 0.000000 0.000000 5.100000 16.740000 # C SUR
245 1 11 0.000000 3.600000 5.800000 16.740000 # C SUR
246 1 11 0.000000 2.400000 5.800000 13.389999 # C SUR
247 1 11 0.000000 1.200000 5.800000 16.740000 # C SUR
248 1 11 0.000000 0.000000 5.800000 13.389999 # C SUR
249 1 11 0.000000 3.600000 7.190000 16.740000 # C SUR
250 1 11 0.000000 2.400000 7.190000 13.389999 # C SUR
251 1 11 0.000000 1.200000 7.190000 16.740000 # C SUR
252 1 11 0.000000 0.000000 7.190000 13.389999 # C SUR
253 1 11 0.000000 3.600000 7.880000 13.389999 # C SUR
254 1 11 0.000000 2.400000 7.880000 16.740000 # C SUR
255 1 11 0.000000 1.200000 7.880000 13.389999 # C SUR
256 1 11 0.000000 0.000000 7.880000 16.740000 # C SUR
257 1 11 0.000000 3.600000 9.260000 13.389999 # C SUR
258 1 11 0.000000 2.400000 9.260000 16.740000 # C SUR
259 1 11 0.000000 1.200000 9.260000 13.389999 # C SUR
260 1 11 0.000000 0.000000 9.260000 16.740000 # C SUR
261 1 11 0.000000 3.600000 9.960000 16.740000 # C SUR
262 1 11 0.000000 2.400000 9.960000 13.389999 # C SUR
263 1 11 0.000000 1.200000 9.960000 16.740000 # C SUR
264 1 11 0.000000 0.000000 9.960000 13.389999 # C SUR
265 1 11 0.000000 3.600000 11.350000 16.740000 # C SUR
266 1 11 0.000000 2.400000 11.350000 13.389999 # C SUR
267 1 11 0.000000 1.200000 11.350000 16.740000 # C SUR
268 1 11 0.000000 0.000000 11.350000 13.389999 # C SUR
269 1 11 0.000000 3.600000 12.040000 13.389999 # C SUR
270 1 11 0.000000 2.400000 12.040000 16.740000 # C SUR
271 1 11 0.000000 1.200000 12.040000 13.389999 # C SUR
272 1 11 0.000000 0.000000 12.040000 16.740000 # C SUR
273 1 11 0.000000 3.600000 13.430000 13.389999 # C SUR
274 1 11 0.000000 2.400000 13.430000 16.740000 # C SUR
275 1 11 0.000000 1.200000 13.430000 13.389999 # C SUR
276 1 11 0.000000 0.000000 13.430000 16.740000 # C SUR
277 1 11 0.000000 3.600000 14.120000 16.740000 # C SUR
278 1 11 0.000000 2.400000 14.120000 13.389999 # C SUR
279 1 11 0.000000 1.200000 14.120000 16.740000 # C SUR
280 1 11 0.000000 0.000000 14.120000 13.389999 # C SUR
281 1 11 0.000000 3.600000 15.509999 16.740000 # C SUR
282 1 11 0.000000 2.400000 15.509999 13.389999 # C SUR
283 1 11 0.000000 1.200000 15.509999 16.740000 # C SUR
284 1 11 0.000000 0.000000 15.509999 13.389999 # C SUR
285 1 11 0.000000 3.600000 16.200001 13.389999 # C SUR
286 1 11 0.000000 2.400000 16.200001 16.740000 # C SUR
287 1 11 0.000000 1.200000 16.200001 13.389999 # C SUR
288 1 11 0.000000 0.000000 16.200001 16.740000 # C SUR
289 1 11 0.000000 3.600000 17.590000 13.389999 # C SUR
290 1 11 0.000000 2.400000 17.590000 16.740000 # C SUR
291 1 11 0.000000 1.200000 17.590000 13.389999 # C SUR
292 1 11 0.000000 0.000000 17.590000 16.740000 # C SUR
293 1 11 0.000000 3.600000 18.280001 16.740000 # C SUR
294 1 11 0.000000 2.400000 18.280001 13.389999 # C SUR
295 1 11 0.000000 1.200000 18.280001 16.740000 # C SUR
296 1 11 0.000000 0.000000 18.280001 13.389999 # C SUR
297 1 11 0.000000 3.600000 19.670000 16.740000 # C SUR
298 1 11 0.000000 2.400000 19.670000 13.389999 # C SUR
299 1 11 0.000000 1.200000 19.670000 16.740000 # C SUR
300 1 11 0.000000 0.000000 19.670000 13.389999 # C SUR
301 1 11 0.000000 3.600000 20.359999 13.389999 # C SUR
302 1 11 0.000000 2.400000 20.359999 16.740000 # C SUR
303 1 11 0.000000 1.200000 20.359999 13.389999 # C SUR
304 1 11 0.000000 0.000000 20.359999 16.740000 # C SUR
305 1 11 0.000000 3.600000 21.750000 13.389999 # C SUR
306 1 11 0.000000 2.400000 21.750000 16.740000 # C SUR
307 1 11 0.000000 1.200000 21.750000 13.389999 # C SUR
308 1 11 0.000000 0.000000 21.750000 16.740000 # C SUR
309 1 11 0.000000 3.600000 22.439999 16.740000 # C SUR
310 1 11 0.000000 2.400000 22.439999 13.389999 # C SUR
311 1 11 0.000000 1.200000 22.439999 16.740000 # C SUR
312 1 11 0.000000 0.000000 22.439999 13.389999 # C SUR
313 1 11 0.000000 3.600000 23.830000 16.740000 # C SUR
314 1 11 0.000000 2.400000 23.830000 13.389999 # C SUR
315 1 11 0.000000 1.200000 23.830000 16.740000 # C SUR
316 1 11 0.000000 0.000000 23.830000 13.389999 # C SUR
317 1 11 0.000000 3.600000 24.520000 13.389999 # C SUR
318 1 11 0.000000 2.400000 24.520000 16.740000 # C SUR
319 1 11 0.000000 1.200000 24.520000 13.389999 # C SUR
320 1 11 0.000000 0.000000 24.520000 16.740000 # C SUR
321 1 13 0.192597 3.600000 25.910000 13.389999 # Cc SUR
322 1 13 0.192597 2.400000 25.910000 16.740000 # Cc SUR
323 1 13 0.192597 1.200000 25.910000 13.389999 # Cc SUR
324 1 13 0.192597 0.000000 25.910000 16.740000 # Cc SUR
325 1 14 0.193733 3.600000 26.600000 16.740000 # Csa SUR
326 1 15 -0.423568 2.400000 26.600000 13.389999 # Csb SUR
327 1 15 -0.423568 1.200000 26.600000 16.740000 # Csb SUR
328 1 14 0.193733 0.000000 26.600000 13.389999 # Csa SUR
329 1 16 0.193733 3.610000 1.950000 16.740000 # H SUR
330 1 16 0.193733 0.000000 1.950000 13.389999 # H SUR
331 1 16 0.193733 3.610000 27.670000 16.740000 # H SUR
332 1 16 0.193733 0.000000 27.670000 13.389999 # H SUR
333 1 12 0.778966 2.400000 28.140001 13.389999 # C1 SUR
334 1 19 -0.557296 3.340000 28.930000 13.389999 # O2 SUR
335 1 18 -0.612087 1.150000 28.659998 13.389999 # O1 SUR
336 1 17 0.398235 1.170000 29.629999 13.389999 # H1 SUR
337 1 12 0.778966 1.200000 28.140001 16.740000 # C1 SUR
338 1 19 -0.557296 0.260000 28.930000 16.740000 # O2 SUR
339 1 18 -0.612087 2.460000 28.659998 16.740000 # O1 SUR
340 1 17 0.398235 2.430000 29.629999 16.740000 # H1 SUR
341 1 12 0.778966 2.400000 1.480000 13.389999 # C1 SUR
342 1 19 -0.557296 1.460000 0.690000 13.389999 # O2 SUR
343 1 18 -0.612087 3.660000 0.970000 13.389999 # O1 SUR
344 1 17 0.398235 3.630000 0.000000 13.389999 # H1 SUR
345 1 12 0.778966 1.200000 1.480000 16.740000 # C1 SUR
346 1 19 -0.557296 2.140000 0.690000 16.740000 # O2 SUR
347 1 18 -0.612087 -0.050000 0.970000 16.740000 # O1 SUR
348 1 17 0.398235 -0.030000 0.000000 16.740000 # H1 SUR
349 1 14 0.193733 3.600000 3.020000 23.440001 # Csa SUR
350 1 15 -0.423568 2.400000 3.020000 20.090000 # Csb SUR
351 1 15 -0.423568 1.200000 3.020000 23.440001 # Csb SUR
352 1 14 0.193733 0.000000 3.020000 20.090000 # Csa SUR
353 1 13 0.192597 3.600000 3.720000 20.090000 # Cc SUR
354 1 13 0.192597 2.400000 3.720000 23.440001 # Cc SUR
355 1 13 0.192597 1.200000 3.720000 20.090000 # Cc SUR
356 1 13 0.192597 0.000000 3.720000 23.440001 # Cc SUR
357 1 11 0.000000 3.600000 5.100000 20.090000 # C SUR
358 1 11 0.000000 2.400000 5.100000 23.440001 # C SUR
359 1 11 0.000000 1.200000 5.100000 20.090000 # C SUR
360 1 11 0.000000 0.000000 5.100000 23.440001 # C SUR
361 1 11 0.000000 3.600000 5.800000 23.440001 # C SUR
362 1 11 0.000000 2.400000 5.800000 20.090000 # C SUR
363 1 11 0.000000 1.200000 5.800000 23.440001 # C SUR
364 1 11 0.000000 0.000000 5.800000 20.090000 # C SUR
365 1 11 0.000000 3.600000 7.190000 23.440001 # C SUR
366 1 11 0.000000 2.400000 7.190000 20.090000 # C SUR
367 1 11 0.000000 1.200000 7.190000 23.440001 # C SUR
368 1 11 0.000000 0.000000 7.190000 20.090000 # C SUR
369 1 11 0.000000 3.600000 7.880000 20.090000 # C SUR
370 1 11 0.000000 2.400000 7.880000 23.440001 # C SUR
371 1 11 0.000000 1.200000 7.880000 20.090000 # C SUR
372 1 11 0.000000 0.000000 7.880000 23.440001 # C SUR
373 1 11 0.000000 3.600000 9.260000 20.090000 # C SUR
374 1 11 0.000000 2.400000 9.260000 23.440001 # C SUR
375 1 11 0.000000 1.200000 9.260000 20.090000 # C SUR
376 1 11 0.000000 0.000000 9.260000 23.440001 # C SUR
377 1 11 0.000000 3.600000 9.960000 23.440001 # C SUR
378 1 11 0.000000 2.400000 9.960000 20.090000 # C SUR
379 1 11 0.000000 1.200000 9.960000 23.440001 # C SUR
380 1 11 0.000000 0.000000 9.960000 20.090000 # C SUR
381 1 11 0.000000 3.600000 11.350000 23.440001 # C SUR
382 1 11 0.000000 2.400000 11.350000 20.090000 # C SUR
383 1 11 0.000000 1.200000 11.350000 23.440001 # C SUR
384 1 11 0.000000 0.000000 11.350000 20.090000 # C SUR
385 1 11 0.000000 3.600000 12.040000 20.090000 # C SUR
386 1 11 0.000000 2.400000 12.040000 23.440001 # C SUR
387 1 11 0.000000 1.200000 12.040000 20.090000 # C SUR
388 1 11 0.000000 0.000000 12.040000 23.440001 # C SUR
389 1 11 0.000000 3.600000 13.430000 20.090000 # C SUR
390 1 11 0.000000 2.400000 13.430000 23.440001 # C SUR
391 1 11 0.000000 1.200000 13.430000 20.090000 # C SUR
392 1 11 0.000000 0.000000 13.430000 23.440001 # C SUR
393 1 11 0.000000 3.600000 14.120000 23.440001 # C SUR
394 1 11 0.000000 2.400000 14.120000 20.090000 # C SUR
395 1 11 0.000000 1.200000 14.120000 23.440001 # C SUR
396 1 11 0.000000 0.000000 14.120000 20.090000 # C SUR
397 1 11 0.000000 3.600000 15.509999 23.440001 # C SUR
398 1 11 0.000000 2.400000 15.509999 20.090000 # C SUR
399 1 11 0.000000 1.200000 15.509999 23.440001 # C SUR
400 1 11 0.000000 0.000000 15.509999 20.090000 # C SUR
401 1 11 0.000000 3.600000 16.200001 20.090000 # C SUR
402 1 11 0.000000 2.400000 16.200001 23.440001 # C SUR
403 1 11 0.000000 1.200000 16.200001 20.090000 # C SUR
404 1 11 0.000000 0.000000 16.200001 23.440001 # C SUR
405 1 11 0.000000 3.600000 17.590000 20.090000 # C SUR
406 1 11 0.000000 2.400000 17.590000 23.440001 # C SUR
407 1 11 0.000000 1.200000 17.590000 20.090000 # C SUR
408 1 11 0.000000 0.000000 17.590000 23.440001 # C SUR
409 1 11 0.000000 3.600000 18.280001 23.440001 # C SUR
410 1 11 0.000000 2.400000 18.280001 20.090000 # C SUR
411 1 11 0.000000 1.200000 18.280001 23.440001 # C SUR
412 1 11 0.000000 0.000000 18.280001 20.090000 # C SUR
413 1 11 0.000000 3.600000 19.670000 23.440001 # C SUR
414 1 11 0.000000 2.400000 19.670000 20.090000 # C SUR
415 1 11 0.000000 1.200000 19.670000 23.440001 # C SUR
416 1 11 0.000000 0.000000 19.670000 20.090000 # C SUR
417 1 11 0.000000 3.600000 20.359999 20.090000 # C SUR
418 1 11 0.000000 2.400000 20.359999 23.440001 # C SUR
419 1 11 0.000000 1.200000 20.359999 20.090000 # C SUR
420 1 11 0.000000 0.000000 20.359999 23.440001 # C SUR
421 1 11 0.000000 3.600000 21.750000 20.090000 # C SUR
422 1 11 0.000000 2.400000 21.750000 23.440001 # C SUR
423 1 11 0.000000 1.200000 21.750000 20.090000 # C SUR
424 1 11 0.000000 0.000000 21.750000 23.440001 # C SUR
425 1 11 0.000000 3.600000 22.439999 23.440001 # C SUR
426 1 11 0.000000 2.400000 22.439999 20.090000 # C SUR
427 1 11 0.000000 1.200000 22.439999 23.440001 # C SUR
428 1 11 0.000000 0.000000 22.439999 20.090000 # C SUR
429 1 11 0.000000 3.600000 23.830000 23.440001 # C SUR
430 1 11 0.000000 2.400000 23.830000 20.090000 # C SUR
431 1 11 0.000000 1.200000 23.830000 23.440001 # C SUR
432 1 11 0.000000 0.000000 23.830000 20.090000 # C SUR
433 1 11 0.000000 3.600000 24.520000 20.090000 # C SUR
434 1 11 0.000000 2.400000 24.520000 23.440001 # C SUR
435 1 11 0.000000 1.200000 24.520000 20.090000 # C SUR
436 1 11 0.000000 0.000000 24.520000 23.440001 # C SUR
437 1 13 0.192597 3.600000 25.910000 20.090000 # Cc SUR
438 1 13 0.192597 2.400000 25.910000 23.440001 # Cc SUR
439 1 13 0.192597 1.200000 25.910000 20.090000 # Cc SUR
440 1 13 0.192597 0.000000 25.910000 23.440001 # Cc SUR
441 1 14 0.193733 3.600000 26.600000 23.440001 # Csa SUR
442 1 15 -0.423568 2.400000 26.600000 20.090000 # Csb SUR
443 1 15 -0.423568 1.200000 26.600000 23.440001 # Csb SUR
444 1 14 0.193733 0.000000 26.600000 20.090000 # Csa SUR
445 1 16 0.193733 3.610000 1.950000 23.440001 # H SUR
446 1 16 0.193733 0.000000 1.950000 20.090000 # H SUR
447 1 16 0.193733 3.610000 27.670000 23.440001 # H SUR
448 1 16 0.193733 0.000000 27.670000 20.090000 # H SUR
449 1 12 0.778966 2.400000 28.140001 20.090000 # C1 SUR
450 1 19 -0.557296 3.340000 28.930000 20.090000 # O2 SUR
451 1 18 -0.612087 1.150000 28.659998 20.090000 # O1 SUR
452 1 17 0.398235 1.170000 29.629999 20.090000 # H1 SUR
453 1 12 0.778966 1.200000 28.140001 23.440001 # C1 SUR
454 1 19 -0.557296 0.260000 28.930000 23.440001 # O2 SUR
455 1 18 -0.612087 2.460000 28.659998 23.440001 # O1 SUR
456 1 17 0.398235 2.430000 29.629999 23.440001 # H1 SUR
457 1 12 0.778966 2.400000 1.480000 20.090000 # C1 SUR
458 1 19 -0.557296 1.460000 0.690000 20.090000 # O2 SUR
459 1 18 -0.612087 3.660000 0.970000 20.090000 # O1 SUR
460 1 17 0.398235 3.630000 0.000000 20.090000 # H1 SUR
461 1 12 0.778966 1.200000 1.480000 23.440001 # C1 SUR
462 1 19 -0.557296 2.140000 0.690000 23.440001 # O2 SUR
463 1 18 -0.612087 -0.050000 0.970000 23.440001 # O1 SUR
464 1 17 0.398235 -0.030000 0.000000 23.440001 # H1 SUR
465 1 14 0.193733 3.600000 3.020000 30.130001 # Csa SUR
466 1 15 -0.423568 2.400000 3.020000 26.779999 # Csb SUR
467 1 15 -0.423568 1.200000 3.020000 30.130001 # Csb SUR
468 1 14 0.193733 0.000000 3.020000 26.779999 # Csa SUR
469 1 13 0.192597 3.600000 3.720000 26.779999 # Cc SUR
470 1 13 0.192597 2.400000 3.720000 30.130001 # Cc SUR