LAMMPS data file. CGCMM style. atom_style full generated by VMD/TopoTools v1.8 on Sat Jan 16 14:46:16 PST 2021
 14046 atoms
 16014 bonds
 28563 angles
 50376 dihedrals
 5379 impropers
 13 atom types
 13 bond types
 19 angle types
 21 dihedral types
 7 improper types
 0.009001 38.449000  xlo xhi
 -0.250500 88.870502  ylo yhi
 -0.038000 40.137999  zlo zhi

Masses

1 16.000000  # 1
2 16.000000  # 2
3 12.010000  # 3
4 12.010000  # 4
5 1.008000   # 5
6 12.010700  # C
7 12.010700  # C1
8 12.010700  # Cc
9 12.010700  # Csa
10 12.010700 # Csb
11 1.007940  # H
12 1.007940  # H1
13 15.999400 # O1

Pair Coeffs

1  0.17000000010548533 3.0000123432245225
2  0.20999999984182244 2.9599219016446874
3  0.10939999991572773 3.399669508450741
4  0.08600000012835884 3.399669507944831
5  0.01570000009846142 2.4713530426421655
6  0.0860000   3.3996695  #C
7  0.0860000   3.3996695  #C1
8  0.0860000   3.3996695  #Cc
9  0.0860000   3.3996695  #Csa
10 0.0860000   3.3996695  #Csb
11 0.0150000   2.5996425  #H
12 0.0150000   2.5105526  #H1
13 0.2100000   2.9599219  #O1

Bond Coeffs

1  301.50   1.439   #os-c3 1-3
2  411.30   1.343   #os-c 1-4
3  648.00   1.214   #o-c 2-4
4  303.10   1.535   #c3-c3 3-3
5  335.90   1.093   #c3-h1 3-5
6  478.4 1.3870      # C-C
7  478.4 1.3870      # C-Cc
8  349.7 1.4870      # C1-Csb
9  310.5 1.1120      # C1-H1
10 648.0 1.2140      # C1-O1
11 478.4 1.3870      # Cc-Csa
12 478.4 1.3870      # Cc-Csb
13 344.3 1.0870      # Csa-H

Angle Coeffs

1  46.36 110.07004711602929  # 1-3-3
2  50.84 108.82004686678859  # 1-3-5
3  76.45 111.38004750557609  # 1-4-1
4  75.93 123.33005291353435  # 1-4-2
5  63.63 115.1400492316122   #c3-os-c  # 3-1-4
6  46.36 110.07004711602929  #c3-c3-h1 # 3-3-5
7  39.18 109.55004723694461  #h1-c3-h1 #  5-3-5
8  67.18 119.97       # C-C-C
9  67.18 119.97       # C-C-Cc
10 67.18 119.97       # C-Cc-Csa
11 67.18 119.97       # C-Cc-Csb
12 64.64 120.14       # C1-Csb-Cc
13 67.18 119.97       # Cc-Csa-Cc
14 48.46 120.01       # Cc-Csa-H
15 67.18 119.97       # Cc-Csb-Cc
16 67.18 119.97       # Csa-Cc-Csb
17  46.52 115.14      # Csb-C1-H1
18  68.67 123.44      # Csb-C1-O1
19  54.28 120.93      # H1-C1-O1

Dihedral Coeffs

1  2 0.144 3 0.0 1.175 2 0.0     #os-c3-c3-os  1-3-3-1
2  2 0.0 3 0.0 0.25 1 0.0        #os-c3-c3-os  1-3-3-5 #didn't find this from gaff.dat
3  1 2.7 2 180                   #os-c-os-c3   3-1-4-1
4  2 2.7 2 180.0 1.4 1 180.0     #c3-os-c-o 3-1-4-2
5  2 0.383 3 0.0 0.8 1 180.0     #c-os-c3-c3 4-1-3-3
6  1 0.383 3 0.0                 #c-os-c3-h1 4-1-3-5
7  1 0.156 3 0.0                 #h1-c3-c3-h1 5-3-3-5
8  1 3.625 2 180.0               #C-C-C-C
9  1 3.625 2 180.0               #C-C-C-Cc
10 1 3.625 2 180.0               # C-C-Cc-Csa
11 1 3.625 2 180.0               # C-C-Cc-Csb
12 1 3.625 2 180.0               # C-Cc-Csa-Cc
13 1 3.625 2 180.0               # C-Cc-Csa-H
14 1 3.625 2 180.0               # C-Cc-Csb-C1
15 1 3.625 2 180.0               # C-Cc-Csb-Cc
16 1 3.625 2 180.0               # Csa-Cc-Csb-C1
17 1 3.625 2 180.0               # Csa-Cc-Csb-Cc
18 1 3.625 2 180.0               # Csb-Cc-Csa-Cc
19 1 3.625 2 180.0               # Csb-Cc-Csa-H
20 1 1.0 2 180.0                 # H1-C1-Csb-Cc
21 1 1.0 2 180.0                 # O1-C1-Csb-Cc

Improper Coeffs

1  1.1 -1 2     # 2-1-4-1
2  1.1 -1 2     # C-C-C-C
3  1.1 -1 2     # C-C-C-Cc
4  1.1 -1 2     # C1-Cc-Csb-Cc
5  1.1 -1 2     # Cc-Cc-Csa-H
6  1.1 -1 2     # Csb-Cc-Csa-C
7  10.5 -1 2     #O1-C1-H1-Csb

 Atoms # full

1 1 9 -0.476221 3.600000 2.190000 3.350000 # Csa SUR
2 1 10 -0.264307 2.400000 2.190000 0.000000 # Csb SUR
3 1 10 -0.264307 1.200000 2.190000 3.350000 # Csb SUR
4 1 9 -0.476221 0.000000 2.190000 0.000000 # Csa SUR
5 1 8 0.188362 3.600000 2.890000 0.000000 # Cc SUR
6 1 8 0.188362 2.400000 2.890000 3.350000 # Cc SUR
7 1 8 0.188362 1.200000 2.890000 0.000000 # Cc SUR
8 1 8 0.188362 0.000000 2.890000 3.350000 # Cc SUR
9 1 6 0.000000 3.600000 4.270000 0.000000 # C SUR
10 1 6 0.000000 2.400000 4.270000 3.350000 # C SUR
11 1 6 0.000000 1.200000 4.270000 0.000000 # C SUR
12 1 6 0.000000 0.000000 4.270000 3.350000 # C SUR
13 1 6 0.000000 3.600000 4.970000 3.350000 # C SUR
14 1 6 0.000000 2.400000 4.970000 0.000000 # C SUR
15 1 6 0.000000 1.200000 4.970000 3.350000 # C SUR
16 1 6 0.000000 0.000000 4.970000 0.000000 # C SUR
17 1 6 0.000000 3.600000 6.360000 3.350000 # C SUR
18 1 6 0.000000 2.400000 6.360000 0.000000 # C SUR
19 1 6 0.000000 1.200000 6.360000 3.350000 # C SUR
20 1 6 0.000000 0.000000 6.360000 0.000000 # C SUR
21 1 6 0.000000 3.600000 7.050000 0.000000 # C SUR
22 1 6 0.000000 2.400000 7.050000 3.350000 # C SUR
23 1 6 0.000000 1.200000 7.050000 0.000000 # C SUR
24 1 6 0.000000 0.000000 7.050000 3.350000 # C SUR
25 1 6 0.000000 3.600000 8.430000 0.000000 # C SUR
26 1 6 0.000000 2.400000 8.430000 3.350000 # C SUR
27 1 6 0.000000 1.200000 8.430000 0.000000 # C SUR
28 1 6 0.000000 0.000000 8.430000 3.350000 # C SUR
29 1 6 0.000000 3.600000 9.130000 3.350000 # C SUR
30 1 6 0.000000 2.400000 9.130000 0.000000 # C SUR
31 1 6 0.000000 1.200000 9.130000 3.350000 # C SUR
32 1 6 0.000000 0.000000 9.130000 0.000000 # C SUR
33 1 6 0.000000 3.600000 10.520000 3.350000 # C SUR
34 1 6 0.000000 2.400000 10.520000 0.000000 # C SUR
35 1 6 0.000000 1.200000 10.520000 3.350000 # C SUR
36 1 6 0.000000 0.000000 10.520000 0.000000 # C SUR
37 1 6 0.000000 3.600000 11.210000 0.000000 # C SUR
38 1 6 0.000000 2.400000 11.210000 3.350000 # C SUR
39 1 6 0.000000 1.200000 11.210000 0.000000 # C SUR
40 1 6 0.000000 0.000000 11.210000 3.350000 # C SUR
41 1 6 0.000000 3.600000 12.600000 0.000000 # C SUR
42 1 6 0.000000 2.400000 12.600000 3.350000 # C SUR
43 1 6 0.000000 1.200000 12.600000 0.000000 # C SUR
44 1 6 0.000000 0.000000 12.600000 3.350000 # C SUR
45 1 6 0.000000 3.600000 13.290000 3.350000 # C SUR
46 1 6 0.000000 2.400000 13.290000 0.000000 # C SUR
47 1 6 0.000000 1.200000 13.290000 3.350000 # C SUR
48 1 6 0.000000 0.000000 13.290000 0.000000 # C SUR
49 1 6 0.000000 3.600000 14.679999 3.350000 # C SUR
50 1 6 0.000000 2.400000 14.679999 0.000000 # C SUR
51 1 6 0.000000 1.200000 14.679999 3.350000 # C SUR
52 1 6 0.000000 0.000000 14.679999 0.000000 # C SUR
53 1 6 0.000000 3.600000 15.370000 0.000000 # C SUR
54 1 6 0.000000 2.400000 15.370000 3.350000 # C SUR
55 1 6 0.000000 1.200000 15.370000 0.000000 # C SUR
56 1 6 0.000000 0.000000 15.370000 3.350000 # C SUR
57 1 6 0.000000 3.600000 16.760000 0.000000 # C SUR
58 1 6 0.000000 2.400000 16.760000 3.350000 # C SUR
59 1 6 0.000000 1.200000 16.760000 0.000000 # C SUR
60 1 6 0.000000 0.000000 16.760000 3.350000 # C SUR
61 1 6 0.000000 3.600000 17.450001 3.350000 # C SUR
62 1 6 0.000000 2.400000 17.450001 0.000000 # C SUR
63 1 6 0.000000 1.200000 17.450001 3.350000 # C SUR
64 1 6 0.000000 0.000000 17.450001 0.000000 # C SUR
65 1 6 0.000000 3.600000 18.840000 3.350000 # C SUR
66 1 6 0.000000 2.400000 18.840000 0.000000 # C SUR
67 1 6 0.000000 1.200000 18.840000 3.350000 # C SUR
68 1 6 0.000000 0.000000 18.840000 0.000000 # C SUR
69 1 6 0.000000 3.600000 19.529999 0.000000 # C SUR
70 1 6 0.000000 2.400000 19.529999 3.350000 # C SUR
71 1 6 0.000000 1.200000 19.529999 0.000000 # C SUR
72 1 6 0.000000 0.000000 19.529999 3.350000 # C SUR
73 1 6 0.000000 3.600000 20.920000 0.000000 # C SUR
74 1 6 0.000000 2.400000 20.920000 3.350000 # C SUR
75 1 6 0.000000 1.200000 20.920000 0.000000 # C SUR
76 1 6 0.000000 0.000000 20.920000 3.350000 # C SUR
77 1 6 0.000000 3.600000 21.609999 3.350000 # C SUR
78 1 6 0.000000 2.400000 21.609999 0.000000 # C SUR
79 1 6 0.000000 1.200000 21.609999 3.350000 # C SUR
80 1 6 0.000000 0.000000 21.609999 0.000000 # C SUR
81 1 6 0.000000 3.600000 23.000000 3.350000 # C SUR
82 1 6 0.000000 2.400000 23.000000 0.000000 # C SUR
83 1 6 0.000000 1.200000 23.000000 3.350000 # C SUR
84 1 6 0.000000 0.000000 23.000000 0.000000 # C SUR
85 1 6 0.000000 3.600000 23.690001 0.000000 # C SUR
86 1 6 0.000000 2.400000 23.690001 3.350000 # C SUR
87 1 6 0.000000 1.200000 23.690001 0.000000 # C SUR
88 1 6 0.000000 0.000000 23.690001 3.350000 # C SUR
89 1 8 0.188362 3.600000 25.080000 0.000000 # Cc SUR
90 1 8 0.188362 2.400000 25.080000 3.350000 # Cc SUR
91 1 8 0.188362 1.200000 25.080000 0.000000 # Cc SUR
92 1 8 0.188362 0.000000 25.080000 3.350000 # Cc SUR
93 1 9 -0.476221 3.600000 25.770000 3.350000 # Csa SUR
94 1 10 -0.264307 2.400000 25.770000 0.000000 # Csb SUR
95 1 10 -0.264307 1.200000 25.770000 3.350000 # Csb SUR
96 1 9 -0.476221 0.000000 25.770000 0.000000 # Csa SUR
97 1 11 0.212481 3.610000 1.120000 3.350000 # H SUR
98 1 11 0.212481 0.000000 1.120000 0.000000 # H SUR
99 1 11 0.212481 3.610000 26.840000 3.350000 # H SUR
100 1 11 0.212481 0.000000 26.840000 0.000000 # H SUR
101 1 7 0.560450 1.200000 0.650000 3.350000 # C1 SUR
102 1 13 -0.523725 2.240000 0.000000 3.350000 # O1 SUR
103 1 12 0.114598 0.200000 0.180000 3.350000 # H1 SUR
104 1 7 0.560450 2.400000 0.650000 0.000000 # C1 SUR
105 1 13 -0.523725 1.360000 0.000000 0.000000 # O1 SUR
106 1 12 0.114598 3.400000 0.180000 0.000000 # H1 SUR
107 1 7 0.560450 1.200000 27.310001 3.350000 # C1 SUR
108 1 13 -0.523725 0.160000 27.970001 3.350000 # O1 SUR
109 1 12 0.114598 2.200000 27.789999 3.350000 # H1 SUR
110 1 7 0.560450 2.400000 27.310001 0.000000 # C1 SUR
111 1 13 -0.523725 3.440000 27.970001 0.000000 # O1 SUR
112 1 12 0.114598 1.400000 27.789999 0.000000 # H1 SUR
113 1 9 -0.476221 3.600000 2.190000 10.039999 # Csa SUR
114 1 10 -0.264307 2.400000 2.190000 6.700000 # Csb SUR
115 1 10 -0.264307 1.200000 2.190000 10.039999 # Csb SUR
116 1 9 -0.476221 0.000000 2.190000 6.700000 # Csa SUR
117 1 8 0.188362 3.600000 2.890000 6.700000 # Cc SUR
118 1 8 0.188362 2.400000 2.890000 10.039999 # Cc SUR
119 1 8 0.188362 1.200000 2.890000 6.700000 # Cc SUR
120 1 8 0.188362 0.000000 2.890000 10.039999 # Cc SUR
121 1 6 0.000000 3.600000 4.270000 6.700000 # C SUR
122 1 6 0.000000 2.400000 4.270000 10.039999 # C SUR
123 1 6 0.000000 1.200000 4.270000 6.700000 # C SUR
124 1 6 0.000000 0.000000 4.270000 10.039999 # C SUR
125 1 6 0.000000 3.600000 4.970000 10.039999 # C SUR
126 1 6 0.000000 2.400000 4.970000 6.700000 # C SUR
127 1 6 0.000000 1.200000 4.970000 10.039999 # C SUR
128 1 6 0.000000 0.000000 4.970000 6.700000 # C SUR
129 1 6 0.000000 3.600000 6.360000 10.039999 # C SUR
130 1 6 0.000000 2.400000 6.360000 6.700000 # C SUR
131 1 6 0.000000 1.200000 6.360000 10.039999 # C SUR
132 1 6 0.000000 0.000000 6.360000 6.700000 # C SUR
133 1 6 0.000000 3.600000 7.050000 6.700000 # C SUR
134 1 6 0.000000 2.400000 7.050000 10.039999 # C SUR
135 1 6 0.000000 1.200000 7.050000 6.700000 # C SUR
136 1 6 0.000000 0.000000 7.050000 10.039999 # C SUR
137 1 6 0.000000 3.600000 8.430000 6.700000 # C SUR
138 1 6 0.000000 2.400000 8.430000 10.039999 # C SUR
139 1 6 0.000000 1.200000 8.430000 6.700000 # C SUR
140 1 6 0.000000 0.000000 8.430000 10.039999 # C SUR
141 1 6 0.000000 3.600000 9.130000 10.039999 # C SUR
142 1 6 0.000000 2.400000 9.130000 6.700000 # C SUR
143 1 6 0.000000 1.200000 9.130000 10.039999 # C SUR
144 1 6 0.000000 0.000000 9.130000 6.700000 # C SUR
145 1 6 0.000000 3.600000 10.520000 10.039999 # C SUR
146 1 6 0.000000 2.400000 10.520000 6.700000 # C SUR
147 1 6 0.000000 1.200000 10.520000 10.039999 # C SUR
148 1 6 0.000000 0.000000 10.520000 6.700000 # C SUR
149 1 6 0.000000 3.600000 11.210000 6.700000 # C SUR
150 1 6 0.000000 2.400000 11.210000 10.039999 # C SUR
151 1 6 0.000000 1.200000 11.210000 6.700000 # C SUR
152 1 6 0.000000 0.000000 11.210000 10.039999 # C SUR
153 1 6 0.000000 3.600000 12.600000 6.700000 # C SUR
154 1 6 0.000000 2.400000 12.600000 10.039999 # C SUR
155 1 6 0.000000 1.200000 12.600000 6.700000 # C SUR
156 1 6 0.000000 0.000000 12.600000 10.039999 # C SUR
157 1 6 0.000000 3.600000 13.290000 10.039999 # C SUR
158 1 6 0.000000 2.400000 13.290000 6.700000 # C SUR
159 1 6 0.000000 1.200000 13.290000 10.039999 # C SUR
160 1 6 0.000000 0.000000 13.290000 6.700000 # C SUR
161 1 6 0.000000 3.600000 14.679999 10.039999 # C SUR
162 1 6 0.000000 2.400000 14.679999 6.700000 # C SUR
163 1 6 0.000000 1.200000 14.679999 10.039999 # C SUR
164 1 6 0.000000 0.000000 14.679999 6.700000 # C SUR
165 1 6 0.000000 3.600000 15.370000 6.700000 # C SUR
166 1 6 0.000000 2.400000 15.370000 10.039999 # C SUR
167 1 6 0.000000 1.200000 15.370000 6.700000 # C SUR
168 1 6 0.000000 0.000000 15.370000 10.039999 # C SUR
169 1 6 0.000000 3.600000 16.760000 6.700000 # C SUR
170 1 6 0.000000 2.400000 16.760000 10.039999 # C SUR
171 1 6 0.000000 1.200000 16.760000 6.700000 # C SUR
172 1 6 0.000000 0.000000 16.760000 10.039999 # C SUR
173 1 6 0.000000 3.600000 17.450001 10.039999 # C SUR
174 1 6 0.000000 2.400000 17.450001 6.700000 # C SUR
175 1 6 0.000000 1.200000 17.450001 10.039999 # C SUR
176 1 6 0.000000 0.000000 17.450001 6.700000 # C SUR
177 1 6 0.000000 3.600000 18.840000 10.039999 # C SUR
178 1 6 0.000000 2.400000 18.840000 6.700000 # C SUR
179 1 6 0.000000 1.200000 18.840000 10.039999 # C SUR
180 1 6 0.000000 0.000000 18.840000 6.700000 # C SUR
181 1 6 0.000000 3.600000 19.529999 6.700000 # C SUR
182 1 6 0.000000 2.400000 19.529999 10.039999 # C SUR
183 1 6 0.000000 1.200000 19.529999 6.700000 # C SUR
184 1 6 0.000000 0.000000 19.529999 10.039999 # C SUR
185 1 6 0.000000 3.600000 20.920000 6.700000 # C SUR
186 1 6 0.000000 2.400000 20.920000 10.039999 # C SUR
187 1 6 0.000000 1.200000 20.920000 6.700000 # C SUR
188 1 6 0.000000 0.000000 20.920000 10.039999 # C SUR
189 1 6 0.000000 3.600000 21.609999 10.039999 # C SUR
190 1 6 0.000000 2.400000 21.609999 6.700000 # C SUR
191 1 6 0.000000 1.200000 21.609999 10.039999 # C SUR
192 1 6 0.000000 0.000000 21.609999 6.700000 # C SUR
193 1 6 0.000000 3.600000 23.000000 10.039999 # C SUR
194 1 6 0.000000 2.400000 23.000000 6.700000 # C SUR
195 1 6 0.000000 1.200000 23.000000 10.039999 # C SUR
196 1 6 0.000000 0.000000 23.000000 6.700000 # C SUR
197 1 6 0.000000 3.600000 23.690001 6.700000 # C SUR
198 1 6 0.000000 2.400000 23.690001 10.039999 # C SUR
199 1 6 0.000000 1.200000 23.690001 6.700000 # C SUR
200 1 6 0.000000 0.000000 23.690001 10.039999 # C SUR
201 1 8 0.188362 3.600000 25.080000 6.700000 # Cc SUR
202 1 8 0.188362 2.400000 25.080000 10.039999 # Cc SUR
203 1 8 0.188362 1.200000 25.080000 6.700000 # Cc SUR
204 1 8 0.188362 0.000000 25.080000 10.039999 # Cc SUR
205 1 9 -0.476221 3.600000 25.770000 10.039999 # Csa SUR
206 1 10 -0.264307 2.400000 25.770000 6.700000 # Csb SUR
207 1 10 -0.264307 1.200000 25.770000 10.039999 # Csb SUR
208 1 9 -0.476221 0.000000 25.770000 6.700000 # Csa SUR
209 1 11 0.212481 3.610000 1.120000 10.039999 # H SUR
210 1 11 0.212481 0.000000 1.120000 6.700000 # H SUR
211 1 11 0.212481 3.610000 26.840000 10.039999 # H SUR
212 1 11 0.212481 0.000000 26.840000 6.700000 # H SUR
213 1 7 0.560450 1.200000 0.650000 10.039999 # C1 SUR
214 1 13 -0.523725 2.240000 0.000000 10.039999 # O1 SUR
215 1 12 0.114598 0.200000 0.180000 10.039999 # H1 SUR
216 1 7 0.560450 2.400000 0.650000 6.700000 # C1 SUR
217 1 13 -0.523725 1.360000 0.000000 6.700000 # O1 SUR
218 1 12 0.114598 3.400000 0.180000 6.700000 # H1 SUR
219 1 7 0.560450 1.200000 27.310001 10.039999 # C1 SUR
220 1 13 -0.523725 0.160000 27.970001 10.039999 # O1 SUR
221 1 12 0.114598 2.200000 27.789999 10.039999 # H1 SUR
222 1 7 0.560450 2.400000 27.310001 6.700000 # C1 SUR
223 1 13 -0.523725 3.440000 27.970001 6.700000 # O1 SUR
224 1 12 0.114598 1.400000 27.789999 6.700000 # H1 SUR
225 1 9 -0.476221 3.600000 2.190000 16.740000 # Csa SUR
226 1 10 -0.264307 2.400000 2.190000 13.389999 # Csb SUR
227 1 10 -0.264307 1.200000 2.190000 16.740000 # Csb SUR
228 1 9 -0.476221 0.000000 2.190000 13.389999 # Csa SUR
229 1 8 0.188362 3.600000 2.890000 13.389999 # Cc SUR
230 1 8 0.188362 2.400000 2.890000 16.740000 # Cc SUR
231 1 8 0.188362 1.200000 2.890000 13.389999 # Cc SUR
232 1 8 0.188362 0.000000 2.890000 16.740000 # Cc SUR
233 1 6 0.000000 3.600000 4.270000 13.389999 # C SUR
234 1 6 0.000000 2.400000 4.270000 16.740000 # C SUR
235 1 6 0.000000 1.200000 4.270000 13.389999 # C SUR
236 1 6 0.000000 0.000000 4.270000 16.740000 # C SUR
237 1 6 0.000000 3.600000 4.970000 16.740000 # C SUR
238 1 6 0.000000 2.400000 4.970000 13.389999 # C SUR
239 1 6 0.000000 1.200000 4.970000 16.740000 # C SUR
240 1 6 0.000000 0.000000 4.970000 13.389999 # C SUR
241 1 6 0.000000 3.600000 6.360000 16.740000 # C SUR
242 1 6 0.000000 2.400000 6.360000 13.389999 # C SUR
243 1 6 0.000000 1.200000 6.360000 16.740000 # C SUR
244 1 6 0.000000 0.000000 6.360000 13.389999 # C SUR
245 1 6 0.000000 3.600000 7.050000 13.389999 # C SUR
246 1 6 0.000000 2.400000 7.050000 16.740000 # C SUR
247 1 6 0.000000 1.200000 7.050000 13.389999 # C SUR
248 1 6 0.000000 0.000000 7.050000 16.740000 # C SUR
249 1 6 0.000000 3.600000 8.430000 13.389999 # C SUR
250 1 6 0.000000 2.400000 8.430000 16.740000 # C SUR
251 1 6 0.000000 1.200000 8.430000 13.389999 # C SUR
252 1 6 0.000000 0.000000 8.430000 16.740000 # C SUR
253 1 6 0.000000 3.600000 9.130000 16.740000 # C SUR
254 1 6 0.000000 2.400000 9.130000 13.389999 # C SUR
255 1 6 0.000000 1.200000 9.130000 16.740000 # C SUR
256 1 6 0.000000 0.000000 9.130000 13.389999 # C SUR
257 1 6 0.000000 3.600000 10.520000 16.740000 # C SUR
258 1 6 0.000000 2.400000 10.520000 13.389999 # C SUR
259 1 6 0.000000 1.200000 10.520000 16.740000 # C SUR
260 1 6 0.000000 0.000000 10.520000 13.389999 # C SUR
261 1 6 0.000000 3.600000 11.210000 13.389999 # C SUR
262 1 6 0.000000 2.400000 11.210000 16.740000 # C SUR
263 1 6 0.000000 1.200000 11.210000 13.389999 # C SUR
264 1 6 0.000000 0.000000 11.210000 16.740000 # C SUR
265 1 6 0.000000 3.600000 12.600000 13.389999 # C SUR
266 1 6 0.000000 2.400000 12.600000 16.740000 # C SUR
267 1 6 0.000000 1.200000 12.600000 13.389999 # C SUR
268 1 6 0.000000 0.000000 12.600000 16.740000 # C SUR
269 1 6 0.000000 3.600000 13.290000 16.740000 # C SUR
270 1 6 0.000000 2.400000 13.290000 13.389999 # C SUR
271 1 6 0.000000 1.200000 13.290000 16.740000 # C SUR
272 1 6 0.000000 0.000000 13.290000 13.389999 # C SUR
273 1 6 0.000000 3.600000 14.679999 16.740000 # C SUR
274 1 6 0.000000 2.400000 14.679999 13.389999 # C SUR
275 1 6 0.000000 1.200000 14.679999 16.740000 # C SUR
276 1 6 0.000000 0.000000 14.679999 13.389999 # C SUR
277 1 6 0.000000 3.600000 15.370000 13.389999 # C SUR
278 1 6 0.000000 2.400000 15.370000 16.740000 # C SUR
279 1 6 0.000000 1.200000 15.370000 13.389999 # C SUR
280 1 6 0.000000 0.000000 15.370000 16.740000 # C SUR
281 1 6 0.000000 3.600000 16.760000 13.389999 # C SUR
282 1 6 0.000000 2.400000 16.760000 16.740000 # C SUR
283 1 6 0.000000 1.200000 16.760000 13.389999 # C SUR
284 1 6 0.000000 0.000000 16.760000 16.740000 # C SUR
285 1 6 0.000000 3.600000 17.450001 16.740000 # C SUR
286 1 6 0.000000 2.400000 17.450001 13.389999 # C SUR
287 1 6 0.000000 1.200000 17.450001 16.740000 # C SUR
288 1 6 0.000000 0.000000 17.450001 13.389999 # C SUR
289 1 6 0.000000 3.600000 18.840000 16.740000 # C SUR
290 1 6 0.000000 2.400000 18.840000 13.389999 # C SUR
291 1 6 0.000000 1.200000 18.840000 16.740000 # C SUR
292 1 6 0.000000 0.000000 18.840000 13.389999 # C SUR
293 1 6 0.000000 3.600000 19.529999 13.389999 # C SUR
294 1 6 0.000000 2.400000 19.529999 16.740000 # C SUR
295 1 6 0.000000 1.200000 19.529999 13.389999 # C SUR
296 1 6 0.000000 0.000000 19.529999 16.740000 # C SUR
297 1 6 0.000000 3.600000 20.920000 13.389999 # C SUR
298 1 6 0.000000 2.400000 20.920000 16.740000 # C SUR
299 1 6 0.000000 1.200000 20.920000 13.389999 # C SUR
300 1 6 0.000000 0.000000 20.920000 16.740000 # C SUR
301 1 6 0.000000 3.600000 21.609999 16.740000 # C SUR
302 1 6 0.000000 2.400000 21.609999 13.389999 # C SUR
303 1 6 0.000000 1.200000 21.609999 16.740000 # C SUR
304 1 6 0.000000 0.000000 21.609999 13.389999 # C SUR
305 1 6 0.000000 3.600000 23.000000 16.740000 # C SUR
306 1 6 0.000000 2.400000 23.000000 13.389999 # C SUR
307 1 6 0.000000 1.200000 23.000000 16.740000 # C SUR
308 1 6 0.000000 0.000000 23.000000 13.389999 # C SUR
309 1 6 0.000000 3.600000 23.690001 13.389999 # C SUR
310 1 6 0.000000 2.400000 23.690001 16.740000 # C SUR
311 1 6 0.000000 1.200000 23.690001 13.389999 # C SUR
312 1 6 0.000000 0.000000 23.690001 16.740000 # C SUR
313 1 8 0.188362 3.600000 25.080000 13.389999 # Cc SUR
314 1 8 0.188362 2.400000 25.080000 16.740000 # Cc SUR
315 1 8 0.188362 1.200000 25.080000 13.389999 # Cc SUR
316 1 8 0.188362 0.000000 25.080000 16.740000 # Cc SUR
317 1 9 -0.476221 3.600000 25.770000 16.740000 # Csa SUR
318 1 10 -0.264307 2.400000 25.770000 13.389999 # Csb SUR
319 1 10 -0.264307 1.200000 25.770000 16.740000 # Csb SUR
320 1 9 -0.476221 0.000000 25.770000 13.389999 # Csa SUR
321 1 11 0.212481 3.610000 1.120000 16.740000 # H SUR
322 1 11 0.212481 0.000000 1.120000 13.389999 # H SUR
323 1 11 0.212481 3.610000 26.840000 16.740000 # H SUR
324 1 11 0.212481 0.000000 26.840000 13.389999 # H SUR
325 1 7 0.560450 1.200000 0.650000 16.740000 # C1 SUR
326 1 13 -0.523725 2.240000 0.000000 16.740000 # O1 SUR
327 1 12 0.114598 0.200000 0.180000 16.740000 # H1 SUR
328 1 7 0.560450 2.400000 0.650000 13.389999 # C1 SUR
329 1 13 -0.523725 1.360000 0.000000 13.389999 # O1 SUR
330 1 12 0.114598 3.400000 0.180000 13.389999 # H1 SUR
331 1 7 0.560450 1.200000 27.310001 16.740000 # C1 SUR
332 1 13 -0.523725 0.160000 27.970001 16.740000 # O1 SUR
333 1 12 0.114598 2.200000 27.789999 16.740000 # H1 SUR
334 1 7 0.560450 2.400000 27.310001 13.389999 # C1 SUR
335 1 13 -0.523725 3.440000 27.970001 13.389999 # O1 SUR
336 1 12 0.114598 1.400000 27.789999 13.389999 # H1 SUR
337 1 9 -0.476221 3.600000 2.190000 23.440001 # Csa SUR
338 1 10 -0.264307 2.400000 2.190000 20.090000 # Csb SUR
339 1 10 -0.264307 1.200000 2.190000 23.440001 # Csb SUR
340 1 9 -0.476221 0.000000 2.190000 20.090000 # Csa SUR
341 1 8 0.188362 3.600000 2.890000 20.090000 # Cc SUR
342 1 8 0.188362 2.400000 2.890000 23.440001 # Cc SUR
343 1 8 0.188362 1.200000 2.890000 20.090000 # Cc SUR
344 1 8 0.188362 0.000000 2.890000 23.440001 # Cc SUR
345 1 6 0.000000 3.600000 4.270000 20.090000 # C SUR
346 1 6 0.000000 2.400000 4.270000 23.440001 # C SUR
347 1 6 0.000000 1.200000 4.270000 20.090000 # C SUR
348 1 6 0.000000 0.000000 4.270000 23.440001 # C SUR
349 1 6 0.000000 3.600000 4.970000 23.440001 # C SUR
350 1 6 0.000000 2.400000 4.970000 20.090000 # C SUR
351 1 6 0.000000 1.200000 4.970000 23.440001 # C SUR
352 1 6 0.000000 0.000000 4.970000 20.090000 # C SUR
353 1 6 0.000000 3.600000 6.360000 23.440001 # C SUR
354 1 6 0.000000 2.400000 6.360000 20.090000 # C SUR
355 1 6 0.000000 1.200000 6.360000 23.440001 # C SUR
356 1 6 0.000000 0.000000 6.360000 20.090000 # C SUR
357 1 6 0.000000 3.600000 7.050000 20.090000 # C SUR
358 1 6 0.000000 2.400000 7.050000 23.440001 # C SUR
359 1 6 0.000000 1.200000 7.050000 20.090000 # C SUR
360 1 6 0.000000 0.000000 7.050000 23.440001 # C SUR
361 1 6 0.000000 3.600000 8.430000 20.090000 # C SUR
362 1 6 0.000000 2.400000 8.430000 23.440001 # C SUR
363 1 6 0.000000 1.200000 8.430000 20.090000 # C SUR
364 1 6 0.000000 0.000000 8.430000 23.440001 # C SUR
365 1 6 0.000000 3.600000 9.130000 23.440001 # C SUR
366 1 6 0.000000 2.400000 9.130000 20.090000 # C SUR
367 1 6 0.000000 1.200000 9.130000 23.440001 # C SUR
368 1 6 0.000000 0.000000 9.130000 20.090000 # C SUR
369 1 6 0.000000 3.600000 10.520000 23.440001 # C SUR
370 1 6 0.000000 2.400000 10.520000 20.090000 # C SUR
371 1 6 0.000000 1.200000 10.520000 23.440001 # C SUR
372 1 6 0.000000 0.000000 10.520000 20.090000 # C SUR
373 1 6 0.000000 3.600000 11.210000 20.090000 # C SUR
374 1 6 0.000000 2.400000 11.210000 23.440001 # C SUR
375 1 6 0.000000 1.200000 11.210000 20.090000 # C SUR
376 1 6 0.000000 0.000000 11.210000 23.440001 # C SUR
377 1 6 0.000000 3.600000 12.600000 20.090000 # C SUR
378 1 6 0.000000 2.400000 12.600000 23.440001 # C SUR
379 1 6 0.000000 1.200000 12.600000 20.090000 # C SUR
380 1 6 0.000000 0.000000 12.600000 23.440001 # C SUR
381 1 6 0.000000 3.600000 13.290000 23.440001 # C SUR
382 1 6 0.000000 2.400000 13.290000 20.090000 # C SUR
383 1 6 0.000000 1.200000 13.290000 23.440001 # C SUR
384 1 6 0.000000 0.000000 13.290000 20.090000 # C SUR
385 1 6 0.000000 3.600000 14.679999 23.440001 # C SUR
386 1 6 0.000000 2.400000 14.679999 20.090000 # C SUR
387 1 6 0.000000 1.200000 14.679999 23.440001 # C SUR
388 1 6 0.000000 0.000000 14.679999 20.090000 # C SUR
389 1 6 0.000000 3.600000 15.370000 20.090000 # C SUR
390 1 6 0.000000 2.400000 15.370000 23.440001 # C SUR
391 1 6 0.000000 1.200000 15.370000 20.090000 # C SUR
392 1 6 0.000000 0.000000 15.370000 23.440001 # C SUR
393 1 6 0.000000 3.600000 16.760000 20.090000 # C SUR
394 1 6 0.000000 2.400000 16.760000 23.440001 # C SUR
395 1 6 0.000000 1.200000 16.760000 20.090000 # C SUR
396 1 6 0.000000 0.000000 16.760000 23.440001 # C SUR
397 1 6 0.000000 3.600000 17.450001 23.440001 # C SUR
398 1 6 0.000000 2.400000 17.450001 20.090000 # C SUR
399 1 6 0.000000 1.200000 17.450001 23.440001 # C SUR
400 1 6 0.000000 0.000000 17.450001 20.090000 # C SUR
401 1 6 0.000000 3.600000 18.840000 23.440001 # C SUR
402 1 6 0.000000 2.400000 18.840000 20.090000 # C SUR
403 1 6 0.000000 1.200000 18.840000 23.440001 # C SUR
404 1 6 0.000000 0.000000 18.840000 20.090000 # C SUR
405 1 6 0.000000 3.600000 19.529999 20.090000 # C SUR
406 1 6 0.000000 2.400000 19.529999 23.440001 # C SUR
407 1 6 0.000000 1.200000 19.529999 20.090000 # C SUR
408 1 6 0.000000 0.000000 19.529999 23.440001 # C SUR
409 1 6 0.000000 3.600000 20.920000 20.090000 # C SUR
410 1 6 0.000000 2.400000 20.920000 23.440001 # C SUR
411 1 6 0.000000 1.200000 20.920000 20.090000 # C SUR
412 1 6 0.000000 0.000000 20.920000 23.440001 # C SUR
413 1 6 0.000000 3.600000 21.609999 23.440001 # C SUR
414 1 6 0.000000 2.400000 21.609999 20.090000 # C SUR
415 1 6 0.000000 1.200000 21.609999 23.440001 # C SUR
416 1 6 0.000000 0.000000 21.609999 20.090000 # C SUR
417 1 6 0.000000 3.600000 23.000000 23.440001 # C SUR
418 1 6 0.000000 2.400000 23.000000 20.090000 # C SUR
419 1 6 0.000000 1.200000 23.000000 23.440001 # C SUR
420 1 6 0.000000 0.000000 23.000000 20.090000 # C SUR
421 1 6 0.000000 3.600000 23.690001 20.090000 # C SUR
422 1 6 0.000000 2.400000 23.690001 23.440001 # C SUR
423 1 6 0.000000 1.200000 23.690001 20.090000 # C SUR
424 1 6 0.000000 0.000000 23.690001 23.440001 # C SUR
425 1 8 0.188362 3.600000 25.080000 20.090000 # Cc SUR
426 1 8 0.188362 2.400000 25.080000 23.440001 # Cc SUR
427 1 8 0.188362 1.200000 25.080000 20.090000 # Cc SUR
428 1 8 0.188362 0.000000 25.080000 23.440001 # Cc SUR
429 1 9 -0.476221 3.600000 25.770000 23.440001 # Csa SUR
430 1 10 -0.264307 2.400000 25.770000 20.090000 # Csb SUR
431 1 10 -0.264307 1.200000 25.770000 23.440001 # Csb SUR
432 1 9 -0.476221 0.000000 25.770000 20.090000 # Csa SUR
433 1 11 0.212481 3.610000 1.120000 23.440001 # H SUR
434 1 11 0.212481 0.000000 1.120000 20.090000 # H SUR
435 1 11 0.212481 3.610000 26.840000 23.440001 # H SUR
436 1 11 0.212481 0.000000 26.840000 20.090000 # H SUR
437 1 7 0.560450 1.200000 0.650000 23.440001 # C1 SUR
438 1 13 -0.523725 2.240000 0.000000 23.440001 # O1 SUR
439 1 12 0.114598 0.200000 0.180000 23.440001 # H1 SUR
440 1 7 0.560450 2.400000 0.650000 20.090000 # C1 SUR
441 1 13 -0.523725 1.360000 0.000000 20.090000 # O1 SUR
442 1 12 0.114598 3.400000 0.180000 20.090000 # H1 SUR
443 1 7 0.560450 1.200000 27.310001 23.440001 # C1 SUR
444 1 13 -0.523725 0.160000 27.970001 23.440001 # O1 SUR
445 1 12 0.114598 2.200000 27.789999 23.440001 # H1 SUR
446 1 7 0.560450 2.400000 27.310001 20.090000 # C1 SUR
447 1 13 -0.523725 3.440000 27.970001 20.090000 # O1 SUR
448 1 12 0.114598 1.400000 27.789999 20.090000 # H1 SUR
449 1 9 -0.476221 3.600000 2.190000 30.130001 # Csa SUR
450 1 10 -0.264307 2.400000 2.190000 26.779999 # Csb SUR
451 1 10 -0.264307 1.200000 2.190000 30.130001 # Csb SUR
452 1 9 -0.476221 0.000000 2.190000 26.779999 # Csa SUR
453 1 8 0.188362 3.600000 2.890000 26.779999 # Cc SUR
454 1 8 0.188362 2.400000 2.890000 30.130001 # Cc SUR
455 1 8 0.188362 1.200000 2.890000 26.779999 # Cc SUR
456 1 8 0.188362 0.000000 2.890000 30.130001 # Cc SUR
457 1 6 0.000000 3.600000 4.270000 26.779999 # C SUR
458 1 6 0.000000 2.400000 4.270000 30.130001 # C SUR
459 1 6 0.000000 1.200000 4.270000 26.779999 # C SUR
460 1 6 0.000000 0.000000 4.270000 30.130001 # C SUR
461 1 6 0.000000 3.600000 4.970000 30.130001 # C SUR
462 1 6 0.000000 2.400000 4.970000 26.779999 # C SUR
463 1 6 0.000000 1.200000 4.970000 30.130001 # C SUR
464 1 6 0.000000 0.000000 4.970000 26.779999 # C SUR
465 1 6 0.000000 3.600000 6.360000 30.130001 # C SUR
466 1 6 0.000000 2.400000 6.360000 26.779999 # C SUR
467 1 6 0.000000 1.200000 6.360000 30.130001 # C SUR
468 1 6 0.000000 0.000000 6.360000 26.779999 # C SUR
469 1 6 0.000000 3.600000 7.050000 26.779999 # C SUR
470 1 6 0.000000 2.400000 7.050000 30.130001 # C SUR
471 1 6 0.000000 1.200000 7.050000 26.779999 # C SUR
472 1 6 0.000000 0.000000 7.050000 30.130001 # C SUR
473 1 6 0.000000 3.600000 8.430000 26.779999 # C SUR
474 1 6 0.000000 2.400000 8.430000 30.130001 # C SUR
475 1 6 0.000000 1.200000 8.430000 26.779999 # C SUR
476 1 6 0.000000 0.000000 8.430000 30.130001 # C SUR
477 1 6 0.000000 3.600000 9.130000 30.130001 # C SUR
478 1 6 0.000000 2.400000 9.130000 26.779999 # C SUR
479 1 6 0.000000 1.200000 9.130000 30.130001 # C SUR
480 1 6 0.000000 0.000000 9.130000 26.779999 # C SUR
481 1 6 0.000000 3.600000 10.520000 30.130001 # C SUR
482 1 6 0.000000 2.400000 10.520000 26.779999 # C SUR
483 1 6 0.000000 1.200000 10.520000 30.130001 # C SUR
484 1 6 0.000000 0.000000 10.520000 26.779999 # C SUR
485 1 6 0.000000 3.600000 11.210000 26.779999 # C SUR
486 1 6 0.000000 2.400000 11.210000 30.130001 # C SUR
487 1 6 0.000000 1.200000 11.210000 26.779999 # C SUR
488 1 6 0.000000 0.000000 11.210000 30.130001 # C SUR
489 1 6 0.000000 3.600000 12.600000 26.779999 # C SUR
490 1 6 0.000000 2.400000 12.600000 30.130001 # C SUR
491 1 6 0.000000 1.200000 12.600000 26.779999 # C SUR
492 1 6 0.000000 0.000000 12.600000 30.130001 # C SUR
493 1 6 0.000000 3.600000 13.290000 30.130001 # C SUR
494 1 6 0.000000 2.400000 13.290000 26.779999 # C SUR