LAMMPS data file. CGCMM style. atom_style full generated by VMD/TopoTools v1.7 on Tue Apr 21 16:18:23 PDT 2020
 14126 atoms
 15978 bonds
 28857 angles
 49608 dihedrals
 867 impropers
 28 atom types
 41 bond types
 70 angle types
 96 dihedral types
 1 improper types
 0.045001 38.485000  xlo xhi
 -0.267998 90.221000  ylo yhi
 -0.002499 40.173500  zlo zhi

Pair Coeffs

1  0.17000000010548533 3.0000123432245225
2  0.06099999986147358 3.118145514092048
3  0.20999999984182244 2.9599219016446874
4  0.10939999991572773 3.399669508450741
5  0.08600000012835884 3.399669507944831
6  0.01570000009846142 2.4713530426421655
7  0.1031400003034657 2.5700646216979743
8  0.19999999984963962 3.7310838316594728
9  0.06099999986147358 3.118145514092048
10 0.06099999986147358 3.118145514092048
11 0.0860   3.3997 #C
12 0.0860   3.3997 #Cc1
13 0.0860   3.3997 # Cc2
14 0.0860   3.3997 # Cc3
15 0.0860   3.3997 # Cc4
16 0.0860   3.3997 # Cc5
17 0.0860   3.3997 # Cc6
18 0.0860   3.3997 # Cc7
19 0.0860   3.3997 # Cc8
20 0.0860   3.3997 # Cs1
21 0.0860   3.3997 # Cs2
22 0.0860   3.3997 # Cs3
23 0.0860   3.3997 # Cs4
24 0.0860   3.3997 # Cs5
25 0.0860   3.3997 # Cs6
26 0.0860   3.3997 # Cs7
27 0.0860   3.3997 # Cs8
28 0.0150   2.5996 # H

Bond Coeffs

1  301.5 1.439   # 1-3
2  411.3 1.343   # 1-4
3  248.6 1.586   # 10-7
4  648.0 1.214   # 2-4
5  303.1 1.535   # 3-3
6  335.9 1.093   # 3-5
7  248.6 1.586   # 7-8
8  248.6 1.586   # 7-9
9  478.4 1.387   # C-C
10 478.4 1.387   # C-Cc1
11 478.4 1.387   # C-Cc2
12 478.4 1.387   # C-Cc3
13 478.4 1.387   # C-Cc4
14 478.4 1.387   # C-Cc5
15 478.4 1.387   # C-Cc6
16 478.4 1.387   # C-Cc7
17 478.4 1.387   # C-Cc8
18 478.4 1.387   #Cc1-Cs2
19 478.4 1.387   #Cc1-Cs4
20 478.4 1.387   #Cc2-Cs1
21 478.4 1.387   #Cc2-Cs3
22 478.4 1.387   #Cc3-Cs2
23 478.4 1.387   #Cc3-Cs4
24 478.4 1.387   #Cc4-Cs1
25 478.4 1.387   #Cc4-Cs3
26 478.4 1.387   #Cc5-Cs6
27 478.4 1.387   #Cc5-Cs8
28 478.4 1.387   #Cc6-Cs5
29 478.4 1.387   #Cc6-Cs7
30 478.4 1.387   #Cc7-Cs6
31 478.4 1.387   #Cc7-Cs8
32 478.4 1.387   #Cc8-Cs5
33 478.4 1.387   #Cc8-Cs7
34 344.3 1.087   #Cs1-H
35 344.3 1.087   #Cs2-H
36 344.3 1.087   #Cs3-H
37 344.3 1.087   #Cs4-H
38 344.3 1.087   #Cs5-H
39 344.3 1.087   #Cs6-H
40 344.3 1.087   #Cs7-H
41 344.3 1.087   #Cs8-H

Angle Coeffs

1  46.36 110.07004711602929  # 1-3-3
2  50.84 108.82004686678859  # 1-3-5
3  76.45 111.38004750557609  # 1-4-1
4  75.93 123.33005291353435  # 1-4-2
5  44.0 180.00007714362235   # 10-7-10
6  44.0 90.00003857181117  #f1-p5-f3 # 10-7-8
7  44.0 90.00003857181117  #f2-p5-f3 # 10-7-9
8  63.63 115.1400492316122   #c3-os-c  # 3-1-4
9  46.36 110.07004711602929  #c3-c3-h1 # 3-3-5
10 39.18 109.55004723694461  #h1-c3-h1 #  5-3-5
11 44.0 180.00007714362235   #f2-p5-f2 #  8-7-8
12 44.0 90.00003857181117    #f1-p5-f2 #  8-7-9
13 44.0 180.00007714362235   #f1-p5-f1 #  9-7-9
14 67.180     119.970        #  C-C-C
15 67.180     119.970        #  C-C-Cc1
16 67.180     119.970        #  C-C-Cc2
17 67.180     119.970        #  C-C-Cc3
18 67.180     119.970        #  C-C-Cc4
19 67.180     119.970        #  C-C-Cc5
20 67.180     119.970        #  C-C-Cc6
21 67.180     119.970        #  C-C-Cc7
22 67.180     119.970        #  C-C-Cc8
23 67.180     119.970        #C-Cc1-Cs2
24 67.180     119.970        #C-Cc1-Cs4
25 67.180     119.970        #C-Cc2-Cs1
26 67.180     119.970        #C-Cc2-Cs3
27 67.180     119.970        #C-Cc3-Cs2
28 67.180     119.970        #C-Cc3-Cs4
29 67.180     119.970        #C-Cc4-Cs1
30 67.180     119.970        #C-Cc4-Cs3
31 67.180     119.970        #C-Cc5-Cs6
32 67.180     119.970        #C-Cc5-Cs8
33 67.180     119.970        #C-Cc6-Cs5
34 67.180     119.970        #C-Cc6-Cs7
35 67.180     119.970        #C-Cc7-Cs6
36 67.180     119.970        #C-Cc7-Cs8
37 67.180     119.970        #C-Cc8-Cs5
38 67.180     119.970        #C-Cc8-Cs7
39 67.180     119.970        #Cc1-Cs2-Cc3
40 48.460     120.010        #Cc1-Cs2-H
41 67.180     119.970        #Cc1-Cs4-Cc3
42 48.460     120.010        #Cc1-Cs4-H
43 67.180     119.970        #Cc2-Cs1-Cc4
44 48.460     120.010        #Cc2-Cs1-H
45 67.180     119.970        #Cc2-Cs3-Cc4
46 48.460     120.010        #Cc2-Cs3-H
47 48.460     120.010        #Cc3-Cs2-H
48 48.460     120.010        #Cc3-Cs4-H
49 48.460     120.010        #Cc4-Cs1-H
50 48.460     120.010        #Cc4-Cs3-H
51 67.180     119.970        #Cc5-Cs6-Cc7
52 48.460     120.010        #Cc5-Cs6-H
53 67.180     119.970        #Cc5-Cs8-Cc7
54 48.460     120.010        #Cc5-Cs8-H
55 67.180     119.970        #Cc6-Cs5-Cc8
56 48.460     120.010        #Cc6-Cs5-H
57 67.180     119.970        #Cc6-Cs7-Cc8
58 48.460     120.010        # Cc6-Cs7-H
59 48.460     120.010        # Cc7-Cs6-H
60 48.460     120.010        # Cc7-Cs8-H
61 48.460     120.010        # Cc8-Cs5-H
62 48.460     120.010        # Cc8-Cs7-H
63 67.180     119.970        # Cs1-Cc2-Cs3
64 67.180     119.970        # Cs1-Cc4-Cs3
65 67.180     119.970        # Cs2-Cc1-Cs4
66 67.180     119.970        # Cs2-Cc3-Cs4
67 67.180     119.970        # Cs5-Cc6-Cs7
68 67.180     119.970        # Cs5-Cc8-Cs7
69 67.180     119.970        # Cs6-Cc5-Cs8
70 67.180     119.970        # Cs6-Cc7-Cs8

Dihedral Coeffs

1  2 0.144 3 0.0 1.175 2 0.0     #os-c3-c3-os  1-3-3-1
2  2 0.0 3 0.0 0.25 1 0.0        #os-c3-c3-os  1-3-3-5 didn't find this from gaff.dat
3  1 2.7 2 180                   #os-c-os-c3   3-1-4-1
4  2 2.7 2 180.0 1.4 1 180.0     #c3-os-c-o 3-1-4-2
5  2 0.383 3 0.0 0.8 1 180.0     #c-os-c3-c3 4-1-3-3
6  1 0.383 3 0.0                 #c-os-c3-h1 4-1-3-5
7  1 0.156 3 0.0                 #h1-c3-c3-h1 5-3-3-5
8  1 3.625 2 180.0               #C-C-C-C
9  1 3.625 2 180.0               #C-C-C-Cc1
10 1 3.625 2 180.0               # C-C-C-Cc2
11 1 3.625 2 180.0               # C-C-C-Cc3
12 1 3.625 2 180.0               # C-C-C-Cc4
13 1 3.625 2 180.0               # C-C-C-Cc5
14 1 3.625 2 180.0               # C-C-C-Cc6
15 1 3.625 2 180.0               # C-C-C-Cc7
16 1 3.625 2 180.0               # C-C-C-Cc8
17 1 3.625 2 180.0               # C-C-Cc1-Cs2
18 1 3.625 2 180.0               # C-C-Cc1-Cs4
19 1 3.625 2 180.0               # C-C-Cc2-Cs1
20 1 3.625 2 180.0               # C-C-Cc2-Cs3
21 1 3.625 2 180.0               # C-C-Cc3-Cs2
22 1 3.625 2 180.0               # C-C-Cc3-Cs4
23 1 3.625 2 180.0               # C-C-Cc4-Cs1
24 1 3.625 2 180.0               # C-C-Cc4-Cs3
25 1 3.625 2 180.0               # C-C-Cc5-Cs6
26 1 3.625 2 180.0               # C-C-Cc5-Cs8
27 1 3.625 2 180.0               # C-C-Cc6-Cs5
28 1 3.625 2 180.0               # C-C-Cc6-Cs7
29 1 3.625 2 180.0               # C-C-Cc7-Cs6
30 1 3.625 2 180.0               # C-C-Cc7-Cs8
31 1 3.625 2 180.0               # C-C-Cc8-Cs5
32 1 3.625 2 180.0               # C-C-Cc8-Cs7
33 1 3.625 2 180.0               # C-Cc1-Cs2-Cc3
34 1 3.625 2 180.0               # C-Cc1-Cs2-H
35 1 3.625 2 180.0               # C-Cc1-Cs4-Cc3
36 1 3.625 2 180.0               # C-Cc1-Cs4-H
37 1 3.625 2 180.0               # C-Cc2-Cs1-Cc4
38 1 3.625 2 180.0               # C-Cc2-Cs1-H
39 1 3.625 2 180.0               # C-Cc2-Cs3-Cc4
40 1 3.625 2 180.0               # C-Cc2-Cs3-H
41 1 3.625 2 180.0               # C-Cc3-Cs2-Cc1
42 1 3.625 2 180.0               # C-Cc3-Cs2-H
43 1 3.625 2 180.0               # C-Cc3-Cs4-Cc1
44 1 3.625 2 180.0               # C-Cc3-Cs4-H
45 1 3.625 2 180.0               # C-Cc4-Cs1-Cc2
46 1 3.625 2 180.0               # C-Cc4-Cs1-H
47 1 3.625 2 180.0               # C-Cc4-Cs3-Cc2
48 1 3.625 2 180.0               # C-Cc4-Cs3-H
49 1 3.625 2 180.0               # C-Cc5-Cs6-Cc7
50 1 3.625 2 180.0               # C-Cc5-Cs6-H
51 1 3.625 2 180.0               # C-Cc5-Cs8-Cc7
52 1 3.625 2 180.0               # C-Cc5-Cs8-H
53 1 3.625 2 180.0               # C-Cc6-Cs5-Cc8
54 1 3.625 2 180.0               # C-Cc6-Cs5-H
55 1 3.625 2 180.0               # C-Cc6-Cs7-Cc8
56 1 3.625 2 180.0               # C-Cc6-Cs7-H
57 1 3.625 2 180.0               # C-Cc7-Cs6-Cc5
58 1 3.625 2 180.0               # C-Cc7-Cs6-H
59 1 3.625 2 180.0               # C-Cc7-Cs8-Cc5
60 1 3.625 2 180.0               # C-Cc7-Cs8-H
61 1 3.625 2 180.0               # C-Cc8-Cs5-Cc6
62 1 3.625 2 180.0               # C-Cc8-Cs5-H
63 1 3.625 2 180.0               # C-Cc8-Cs7-Cc6
64 1 3.625 2 180.0               # C-Cc8-Cs7-H
65 1 3.625 2 180.0               # Cs1-Cc2-Cs3-Cc4
66 1 3.625 2 180.0               # Cs1-Cc2-Cs3-H
67 1 3.625 2 180.0               # Cs1-Cc4-Cs3-Cc2
68 1 3.625 2 180.0               # Cs1-Cc4-Cs3-H
69 1 3.625 2 180.0               # Cs2-Cc1-Cs4-Cc3
70 1 3.625 2 180.0               # Cs2-Cc1-Cs4-H
71 1 3.625 2 180.0               # Cs2-Cc3-Cs4-Cc1
72 1 3.625 2 180.0               # Cs2-Cc3-Cs4-H
73 1 3.625 2 180.0               # Cs3-Cc2-Cs1-Cc4
74 1 3.625 2 180.0               # Cs3-Cc2-Cs1-H
75 1 3.625 2 180.0               # Cs3-Cc4-Cs1-Cc2
76 1 3.625 2 180.0               # Cs3-Cc4-Cs1-H
77 1 3.625 2 180.0               # Cs4-Cc1-Cs2-Cc3
78 1 3.625 2 180.0               # Cs4-Cc1-Cs2-H
79 1 3.625 2 180.0               # Cs4-Cc3-Cs2-Cc1
80 1 3.625 2 180.0               # Cs4-Cc3-Cs2-H
81 1 3.625 2 180.0               # Cs5-Cc6-Cs7-Cc8
82 1 3.625 2 180.0               # Cs5-Cc6-Cs7-H
83 1 3.625 2 180.0               # Cs5-Cc8-Cs7-Cc6
84 1 3.625 2 180.0               # Cs5-Cc8-Cs7-H
85 1 3.625 2 180.0               # Cs6-Cc5-Cs8-Cc7
86 1 3.625 2 180.0               # Cs6-Cc5-Cs8-H
87 1 3.625 2 180.0               # Cs6-Cc7-Cs8-Cc5
88 1 3.625 2 180.0               # Cs6-Cc7-Cs8-H
89 1 3.625 2 180.0               # Cs7-Cc6-Cs5-Cc8
90 1 3.625 2 180.0               # Cs7-Cc6-Cs5-H
91 1 3.625 2 180.0               # Cs7-Cc8-Cs5-Cc6
92 1 3.625 2 180.0               # Cs7-Cc8-Cs5-H
93 1 3.625 2 180.0               # Cs8-Cc5-Cs6-Cc7
94 1 3.625 2 180.0               # Cs8-Cc5-Cs6-H
95 1 3.625 2 180.0               # Cs8-Cc7-Cs6-Cc5
96 1 3.625 2 180.0               # Cs8-Cc7-Cs6-H

Improper Coeffs

1 1.1 -1 2      # 2-1-4-1 or 10.5 -1 2

 Masses

 1 16.000000 # 1
 2 19.000000 # 10
 3 16.000000 # 2
 4 12.010000 # 3
 5 12.010000 # 4
 6 1.008000 # 5
 7 6.941000 # 6
 8 30.969999 # 7
 9 19.000000 # 8
 10 19.000000 # 9
 11 12.010700 # C
 12 12.010700 # Cc1
 13 12.010700 # Cc2
 14 12.010700 # Cc3
 15 12.010700 # Cc4
 16 12.010700 # Cc5
 17 12.010700 # Cc6
 18 12.010700 # Cc7
 19 12.010700 # Cc8
 20 12.010700 # Cs1
 21 12.010700 # Cs2
 22 12.010700 # Cs3
 23 12.010700 # Cs4
 24 12.010700 # Cs5
 25 12.010700 # Cs6
 26 12.010700 # Cs7
 27 12.010700 # Cs8
 28 1.007940 # H

 Atoms # full

1 0 20 -0.397000 3.600000 1.070000 3.350000 # Cs1 SUR
2 0 21 -0.397000 2.400000 1.070000 0.000000 # Cs2 SUR
3 0 22 -0.397000 1.200000 1.070000 3.350000 # Cs3 SUR
4 0 23 -0.397000 0.000000 1.070000 0.000000 # Cs4 SUR
5 0 12 0.194000 3.600000 1.770000 0.000000 # Cc1 SUR
6 0 13 0.194000 2.400000 1.770000 3.350000 # Cc2 SUR
7 0 14 0.194000 1.200000 1.770000 0.000000 # Cc3 SUR
8 0 15 0.194000 0.000000 1.770000 3.350000 # Cc4 SUR
9 0 11 0.000000 3.600000 3.150000 0.000000 # C SUR
10 0 11 0.000000 2.400000 3.150000 3.350000 # C SUR
11 0 11 0.000000 1.200000 3.150000 0.000000 # C SUR
12 0 11 0.000000 0.000000 3.150000 3.350000 # C SUR
13 0 11 0.000000 3.600000 3.850000 3.350000 # C SUR
14 0 11 0.000000 2.400000 3.850000 0.000000 # C SUR
15 0 11 0.000000 1.200000 3.850000 3.350000 # C SUR
16 0 11 0.000000 0.000000 3.850000 0.000000 # C SUR
17 0 11 0.000000 3.600000 5.240000 3.350000 # C SUR
18 0 11 0.000000 2.400000 5.240000 0.000000 # C SUR
19 0 11 0.000000 1.200000 5.240000 3.350000 # C SUR
20 0 11 0.000000 0.000000 5.240000 0.000000 # C SUR
21 0 11 0.000000 3.600000 5.930000 0.000000 # C SUR
22 0 11 0.000000 2.400000 5.930000 3.350000 # C SUR
23 0 11 0.000000 1.200000 5.930000 0.000000 # C SUR
24 0 11 0.000000 0.000000 5.930000 3.350000 # C SUR
25 0 11 0.000000 3.600000 7.310000 0.000000 # C SUR
26 0 11 0.000000 2.400000 7.310000 3.350000 # C SUR
27 0 11 0.000000 1.200000 7.310000 0.000000 # C SUR
28 0 11 0.000000 0.000000 7.310000 3.350000 # C SUR
29 0 11 0.000000 3.600000 8.010000 3.350000 # C SUR
30 0 11 0.000000 2.400000 8.010000 0.000000 # C SUR
31 0 11 0.000000 1.200000 8.010000 3.350000 # C SUR
32 0 11 0.000000 0.000000 8.010000 0.000000 # C SUR
33 0 11 0.000000 3.600000 9.400001 3.350000 # C SUR
34 0 11 0.000000 2.400000 9.400001 0.000000 # C SUR
35 0 11 0.000000 1.200000 9.400001 3.350000 # C SUR
36 0 11 0.000000 0.000000 9.400001 0.000000 # C SUR
37 0 11 0.000000 3.600000 10.090000 0.000000 # C SUR
38 0 11 0.000000 2.400000 10.090000 3.350000 # C SUR
39 0 11 0.000000 1.200000 10.090000 0.000000 # C SUR
40 0 11 0.000000 0.000000 10.090000 3.350000 # C SUR
41 0 11 0.000000 3.600000 11.480000 0.000000 # C SUR
42 0 11 0.000000 2.400000 11.480000 3.350000 # C SUR
43 0 11 0.000000 1.200000 11.480000 0.000000 # C SUR
44 0 11 0.000000 0.000000 11.480000 3.350000 # C SUR
45 0 11 0.000000 3.600000 12.170000 3.350000 # C SUR
46 0 11 0.000000 2.400000 12.170000 0.000000 # C SUR
47 0 11 0.000000 1.200000 12.170000 3.350000 # C SUR
48 0 11 0.000000 0.000000 12.170000 0.000000 # C SUR
49 0 11 0.000000 3.600000 13.559999 3.350000 # C SUR
50 0 11 0.000000 2.400000 13.559999 0.000000 # C SUR
51 0 11 0.000000 1.200000 13.559999 3.350000 # C SUR
52 0 11 0.000000 0.000000 13.559999 0.000000 # C SUR
53 0 11 0.000000 3.600000 14.250000 0.000000 # C SUR
54 0 11 0.000000 2.400000 14.250000 3.350000 # C SUR
55 0 11 0.000000 1.200000 14.250000 0.000000 # C SUR
56 0 11 0.000000 0.000000 14.250000 3.350000 # C SUR
57 0 11 0.000000 3.600000 15.640000 0.000000 # C SUR
58 0 11 0.000000 2.400000 15.640000 3.350000 # C SUR
59 0 11 0.000000 1.200000 15.640000 0.000000 # C SUR
60 0 11 0.000000 0.000000 15.640000 3.350000 # C SUR
61 0 11 0.000000 3.600000 16.330000 3.350000 # C SUR
62 0 11 0.000000 2.400000 16.330000 0.000000 # C SUR
63 0 11 0.000000 1.200000 16.330000 3.350000 # C SUR
64 0 11 0.000000 0.000000 16.330000 0.000000 # C SUR
65 0 11 0.000000 3.600000 17.719999 3.350000 # C SUR
66 0 11 0.000000 2.400000 17.719999 0.000000 # C SUR
67 0 11 0.000000 1.200000 17.719999 3.350000 # C SUR
68 0 11 0.000000 0.000000 17.719999 0.000000 # C SUR
69 0 11 0.000000 3.600000 18.409998 0.000000 # C SUR
70 0 11 0.000000 2.400000 18.409998 3.350000 # C SUR
71 0 11 0.000000 1.200000 18.409998 0.000000 # C SUR
72 0 11 0.000000 0.000000 18.409998 3.350000 # C SUR
73 0 11 0.000000 3.600000 19.799999 0.000000 # C SUR
74 0 11 0.000000 2.400000 19.799999 3.350000 # C SUR
75 0 11 0.000000 1.200000 19.799999 0.000000 # C SUR
76 0 11 0.000000 0.000000 19.799999 3.350000 # C SUR
77 0 11 0.000000 3.600000 20.489998 3.350000 # C SUR
78 0 11 0.000000 2.400000 20.489998 0.000000 # C SUR
79 0 11 0.000000 1.200000 20.489998 3.350000 # C SUR
80 0 11 0.000000 0.000000 20.489998 0.000000 # C SUR
81 0 11 0.000000 3.600000 21.879999 3.350000 # C SUR
82 0 11 0.000000 2.400000 21.879999 0.000000 # C SUR
83 0 11 0.000000 1.200000 21.879999 3.350000 # C SUR
84 0 11 0.000000 0.000000 21.879999 0.000000 # C SUR
85 0 11 0.000000 3.600000 22.570000 0.000000 # C SUR
86 0 11 0.000000 2.400000 22.570000 3.350000 # C SUR
87 0 11 0.000000 1.200000 22.570000 0.000000 # C SUR
88 0 11 0.000000 0.000000 22.570000 3.350000 # C SUR
89 0 16 0.194000 3.600000 23.959999 0.000000 # Cc5 SUR
90 0 17 0.194000 2.400000 23.959999 3.350000 # Cc6 SUR
91 0 18 0.194000 1.200000 23.959999 0.000000 # Cc7 SUR
92 0 19 0.194000 0.000000 23.959999 3.350000 # Cc8 SUR
93 0 24 -0.397000 3.600000 24.650000 3.350000 # Cs5 SUR
94 0 25 -0.397000 2.400000 24.650000 0.000000 # Cs6 SUR
95 0 26 -0.397000 1.200000 24.650000 3.350000 # Cs7 SUR
96 0 27 -0.397000 0.000000 24.650000 0.000000 # Cs8 SUR
97 0 28 0.203000 3.610000 0.000000 3.350000 # H SUR
98 0 28 0.203000 2.400000 0.000000 0.000000 # H SUR
99 0 28 0.203000 1.200000 0.000000 3.350000 # H SUR
100 0 28 0.203000 0.000000 0.000000 0.000000 # H SUR
101 0 28 0.203000 3.610000 25.719999 3.350000 # H SUR
102 0 28 0.203000 2.400000 25.719999 0.000000 # H SUR
103 0 28 0.203000 1.200000 25.719999 3.350000 # H SUR
104 0 28 0.203000 0.000000 25.719999 0.000000 # H SUR
105 0 20 -0.397000 3.600000 1.070000 10.039999 # Cs1 SUR
106 0 21 -0.397000 2.400000 1.070000 6.700000 # Cs2 SUR
107 0 22 -0.397000 1.200000 1.070000 10.039999 # Cs3 SUR
108 0 23 -0.397000 0.000000 1.070000 6.700000 # Cs4 SUR
109 0 12 0.194000 3.600000 1.770000 6.700000 # Cc1 SUR
110 0 13 0.194000 2.400000 1.770000 10.039999 # Cc2 SUR
111 0 14 0.194000 1.200000 1.770000 6.700000 # Cc3 SUR
112 0 15 0.194000 0.000000 1.770000 10.039999 # Cc4 SUR
113 0 11 0.000000 3.600000 3.150000 6.700000 # C SUR
114 0 11 0.000000 2.400000 3.150000 10.039999 # C SUR
115 0 11 0.000000 1.200000 3.150000 6.700000 # C SUR
116 0 11 0.000000 0.000000 3.150000 10.039999 # C SUR
117 0 11 0.000000 3.600000 3.850000 10.039999 # C SUR
118 0 11 0.000000 2.400000 3.850000 6.700000 # C SUR
119 0 11 0.000000 1.200000 3.850000 10.039999 # C SUR
120 0 11 0.000000 0.000000 3.850000 6.700000 # C SUR
121 0 11 0.000000 3.600000 5.240000 10.039999 # C SUR
122 0 11 0.000000 2.400000 5.240000 6.700000 # C SUR
123 0 11 0.000000 1.200000 5.240000 10.039999 # C SUR
124 0 11 0.000000 0.000000 5.240000 6.700000 # C SUR
125 0 11 0.000000 3.600000 5.930000 6.700000 # C SUR
126 0 11 0.000000 2.400000 5.930000 10.039999 # C SUR
127 0 11 0.000000 1.200000 5.930000 6.700000 # C SUR
128 0 11 0.000000 0.000000 5.930000 10.039999 # C SUR
129 0 11 0.000000 3.600000 7.310000 6.700000 # C SUR
130 0 11 0.000000 2.400000 7.310000 10.039999 # C SUR
131 0 11 0.000000 1.200000 7.310000 6.700000 # C SUR
132 0 11 0.000000 0.000000 7.310000 10.039999 # C SUR
133 0 11 0.000000 3.600000 8.010000 10.039999 # C SUR
134 0 11 0.000000 2.400000 8.010000 6.700000 # C SUR
135 0 11 0.000000 1.200000 8.010000 10.039999 # C SUR
136 0 11 0.000000 0.000000 8.010000 6.700000 # C SUR
137 0 11 0.000000 3.600000 9.400001 10.039999 # C SUR
138 0 11 0.000000 2.400000 9.400001 6.700000 # C SUR
139 0 11 0.000000 1.200000 9.400001 10.039999 # C SUR
140 0 11 0.000000 0.000000 9.400001 6.700000 # C SUR
141 0 11 0.000000 3.600000 10.090000 6.700000 # C SUR
142 0 11 0.000000 2.400000 10.090000 10.039999 # C SUR
143 0 11 0.000000 1.200000 10.090000 6.700000 # C SUR
144 0 11 0.000000 0.000000 10.090000 10.039999 # C SUR
145 0 11 0.000000 3.600000 11.480000 6.700000 # C SUR
146 0 11 0.000000 2.400000 11.480000 10.039999 # C SUR
147 0 11 0.000000 1.200000 11.480000 6.700000 # C SUR
148 0 11 0.000000 0.000000 11.480000 10.039999 # C SUR
149 0 11 0.000000 3.600000 12.170000 10.039999 # C SUR
150 0 11 0.000000 2.400000 12.170000 6.700000 # C SUR
151 0 11 0.000000 1.200000 12.170000 10.039999 # C SUR
152 0 11 0.000000 0.000000 12.170000 6.700000 # C SUR
153 0 11 0.000000 3.600000 13.559999 10.039999 # C SUR
154 0 11 0.000000 2.400000 13.559999 6.700000 # C SUR
155 0 11 0.000000 1.200000 13.559999 10.039999 # C SUR
156 0 11 0.000000 0.000000 13.559999 6.700000 # C SUR
157 0 11 0.000000 3.600000 14.250000 6.700000 # C SUR
158 0 11 0.000000 2.400000 14.250000 10.039999 # C SUR
159 0 11 0.000000 1.200000 14.250000 6.700000 # C SUR
160 0 11 0.000000 0.000000 14.250000 10.039999 # C SUR
161 0 11 0.000000 3.600000 15.640000 6.700000 # C SUR
162 0 11 0.000000 2.400000 15.640000 10.039999 # C SUR
163 0 11 0.000000 1.200000 15.640000 6.700000 # C SUR
164 0 11 0.000000 0.000000 15.640000 10.039999 # C SUR
165 0 11 0.000000 3.600000 16.330000 10.039999 # C SUR
166 0 11 0.000000 2.400000 16.330000 6.700000 # C SUR
167 0 11 0.000000 1.200000 16.330000 10.039999 # C SUR
168 0 11 0.000000 0.000000 16.330000 6.700000 # C SUR
169 0 11 0.000000 3.600000 17.719999 10.039999 # C SUR
170 0 11 0.000000 2.400000 17.719999 6.700000 # C SUR
171 0 11 0.000000 1.200000 17.719999 10.039999 # C SUR
172 0 11 0.000000 0.000000 17.719999 6.700000 # C SUR
173 0 11 0.000000 3.600000 18.409998 6.700000 # C SUR
174 0 11 0.000000 2.400000 18.409998 10.039999 # C SUR
175 0 11 0.000000 1.200000 18.409998 6.700000 # C SUR
176 0 11 0.000000 0.000000 18.409998 10.039999 # C SUR
177 0 11 0.000000 3.600000 19.799999 6.700000 # C SUR
178 0 11 0.000000 2.400000 19.799999 10.039999 # C SUR
179 0 11 0.000000 1.200000 19.799999 6.700000 # C SUR
180 0 11 0.000000 0.000000 19.799999 10.039999 # C SUR
181 0 11 0.000000 3.600000 20.489998 10.039999 # C SUR
182 0 11 0.000000 2.400000 20.489998 6.700000 # C SUR
183 0 11 0.000000 1.200000 20.489998 10.039999 # C SUR
184 0 11 0.000000 0.000000 20.489998 6.700000 # C SUR
185 0 11 0.000000 3.600000 21.879999 10.039999 # C SUR
186 0 11 0.000000 2.400000 21.879999 6.700000 # C SUR
187 0 11 0.000000 1.200000 21.879999 10.039999 # C SUR
188 0 11 0.000000 0.000000 21.879999 6.700000 # C SUR
189 0 11 0.000000 3.600000 22.570000 6.700000 # C SUR
190 0 11 0.000000 2.400000 22.570000 10.039999 # C SUR
191 0 11 0.000000 1.200000 22.570000 6.700000 # C SUR
192 0 11 0.000000 0.000000 22.570000 10.039999 # C SUR
193 0 16 0.194000 3.600000 23.959999 6.700000 # Cc5 SUR
194 0 17 0.194000 2.400000 23.959999 10.039999 # Cc6 SUR
195 0 18 0.194000 1.200000 23.959999 6.700000 # Cc7 SUR
196 0 19 0.194000 0.000000 23.959999 10.039999 # Cc8 SUR
197 0 24 -0.397000 3.600000 24.650000 10.039999 # Cs5 SUR
198 0 25 -0.397000 2.400000 24.650000 6.700000 # Cs6 SUR
199 0 26 -0.397000 1.200000 24.650000 10.039999 # Cs7 SUR
200 0 27 -0.397000 0.000000 24.650000 6.700000 # Cs8 SUR
201 0 28 0.203000 3.610000 0.000000 10.039999 # H SUR
202 0 28 0.203000 2.400000 0.000000 6.700000 # H SUR
203 0 28 0.203000 1.200000 0.000000 10.039999 # H SUR
204 0 28 0.203000 0.000000 0.000000 6.700000 # H SUR
205 0 28 0.203000 3.610000 25.719999 10.039999 # H SUR
206 0 28 0.203000 2.400000 25.719999 6.700000 # H SUR
207 0 28 0.203000 1.200000 25.719999 10.039999 # H SUR
208 0 28 0.203000 0.000000 25.719999 6.700000 # H SUR
209 0 20 -0.397000 3.600000 1.070000 16.740000 # Cs1 SUR
210 0 21 -0.397000 2.400000 1.070000 13.389999 # Cs2 SUR
211 0 22 -0.397000 1.200000 1.070000 16.740000 # Cs3 SUR
212 0 23 -0.397000 0.000000 1.070000 13.389999 # Cs4 SUR
213 0 12 0.194000 3.600000 1.770000 13.389999 # Cc1 SUR
214 0 13 0.194000 2.400000 1.770000 16.740000 # Cc2 SUR
215 0 14 0.194000 1.200000 1.770000 13.389999 # Cc3 SUR
216 0 15 0.194000 0.000000 1.770000 16.740000 # Cc4 SUR
217 0 11 0.000000 3.600000 3.150000 13.389999 # C SUR
218 0 11 0.000000 2.400000 3.150000 16.740000 # C SUR
219 0 11 0.000000 1.200000 3.150000 13.389999 # C SUR
220 0 11 0.000000 0.000000 3.150000 16.740000 # C SUR
221 0 11 0.000000 3.600000 3.850000 16.740000 # C SUR
222 0 11 0.000000 2.400000 3.850000 13.389999 # C SUR
223 0 11 0.000000 1.200000 3.850000 16.740000 # C SUR
224 0 11 0.000000 0.000000 3.850000 13.389999 # C SUR
225 0 11 0.000000 3.600000 5.240000 16.740000 # C SUR
226 0 11 0.000000 2.400000 5.240000 13.389999 # C SUR
227 0 11 0.000000 1.200000 5.240000 16.740000 # C SUR
228 0 11 0.000000 0.000000 5.240000 13.389999 # C SUR
229 0 11 0.000000 3.600000 5.930000 13.389999 # C SUR
230 0 11 0.000000 2.400000 5.930000 16.740000 # C SUR
231 0 11 0.000000 1.200000 5.930000 13.389999 # C SUR
232 0 11 0.000000 0.000000 5.930000 16.740000 # C SUR
233 0 11 0.000000 3.600000 7.310000 13.389999 # C SUR
234 0 11 0.000000 2.400000 7.310000 16.740000 # C SUR
235 0 11 0.000000 1.200000 7.310000 13.389999 # C SUR
236 0 11 0.000000 0.000000 7.310000 16.740000 # C SUR
237 0 11 0.000000 3.600000 8.010000 16.740000 # C SUR
238 0 11 0.000000 2.400000 8.010000 13.389999 # C SUR
239 0 11 0.000000 1.200000 8.010000 16.740000 # C SUR
240 0 11 0.000000 0.000000 8.010000 13.389999 # C SUR
241 0 11 0.000000 3.600000 9.400001 16.740000 # C SUR
242 0 11 0.000000 2.400000 9.400001 13.389999 # C SUR
243 0 11 0.000000 1.200000 9.400001 16.740000 # C SUR
244 0 11 0.000000 0.000000 9.400001 13.389999 # C SUR
245 0 11 0.000000 3.600000 10.090000 13.389999 # C SUR
246 0 11 0.000000 2.400000 10.090000 16.740000 # C SUR
247 0 11 0.000000 1.200000 10.090000 13.389999 # C SUR
248 0 11 0.000000 0.000000 10.090000 16.740000 # C SUR
249 0 11 0.000000 3.600000 11.480000 13.389999 # C SUR
250 0 11 0.000000 2.400000 11.480000 16.740000 # C SUR
251 0 11 0.000000 1.200000 11.480000 13.389999 # C SUR
252 0 11 0.000000 0.000000 11.480000 16.740000 # C SUR
253 0 11 0.000000 3.600000 12.170000 16.740000 # C SUR
254 0 11 0.000000 2.400000 12.170000 13.389999 # C SUR
255 0 11 0.000000 1.200000 12.170000 16.740000 # C SUR
256 0 11 0.000000 0.000000 12.170000 13.389999 # C SUR
257 0 11 0.000000 3.600000 13.559999 16.740000 # C SUR
258 0 11 0.000000 2.400000 13.559999 13.389999 # C SUR
259 0 11 0.000000 1.200000 13.559999 16.740000 # C SUR
260 0 11 0.000000 0.000000 13.559999 13.389999 # C SUR
261 0 11 0.000000 3.600000 14.250000 13.389999 # C SUR
262 0 11 0.000000 2.400000 14.250000 16.740000 # C SUR
263 0 11 0.000000 1.200000 14.250000 13.389999 # C SUR
264 0 11 0.000000 0.000000 14.250000 16.740000 # C SUR
265 0 11 0.000000 3.600000 15.640000 13.389999 # C SUR
266 0 11 0.000000 2.400000 15.640000 16.740000 # C SUR
267 0 11 0.000000 1.200000 15.640000 13.389999 # C SUR
268 0 11 0.000000 0.000000 15.640000 16.740000 # C SUR
269 0 11 0.000000 3.600000 16.330000 16.740000 # C SUR
270 0 11 0.000000 2.400000 16.330000 13.389999 # C SUR
271 0 11 0.000000 1.200000 16.330000 16.740000 # C SUR
272 0 11 0.000000 0.000000 16.330000 13.389999 # C SUR
273 0 11 0.000000 3.600000 17.719999 16.740000 # C SUR
274 0 11 0.000000 2.400000 17.719999 13.389999 # C SUR
275 0 11 0.000000 1.200000 17.719999 16.740000 # C SUR
276 0 11 0.000000 0.000000 17.719999 13.389999 # C SUR
277 0 11 0.000000 3.600000 18.409998 13.389999 # C SUR
278 0 11 0.000000 2.400000 18.409998 16.740000 # C SUR
279 0 11 0.000000 1.200000 18.409998 13.389999 # C SUR
280 0 11 0.000000 0.000000 18.409998 16.740000 # C SUR
281 0 11 0.000000 3.600000 19.799999 13.389999 # C SUR
282 0 11 0.000000 2.400000 19.799999 16.740000 # C SUR
283 0 11 0.000000 1.200000 19.799999 13.389999 # C SUR
284 0 11 0.000000 0.000000 19.799999 16.740000 # C SUR
285 0 11 0.000000 3.600000 20.489998 16.740000 # C SUR
286 0 11 0.000000 2.400000 20.489998 13.389999 # C SUR
287 0 11 0.000000 1.200000 20.489998 16.740000 # C SUR
288 0 11 0.000000 0.000000 20.489998 13.389999 # C SUR
289 0 11 0.000000 3.600000 21.879999 16.740000 # C SUR
290 0 11 0.000000 2.400000 21.879999 13.389999 # C SUR
291 0 11 0.000000 1.200000 21.879999 16.740000 # C SUR
292 0 11 0.000000 0.000000 21.879999 13.389999 # C SUR
293 0 11 0.000000 3.600000 22.570000 13.389999 # C SUR
294 0 11 0.000000 2.400000 22.570000 16.740000 # C SUR
295 0 11 0.000000 1.200000 22.570000 13.389999 # C SUR
296 0 11 0.000000 0.000000 22.570000 16.740000 # C SUR
297 0 16 0.194000 3.600000 23.959999 13.389999 # Cc5 SUR
298 0 17 0.194000 2.400000 23.959999 16.740000 # Cc6 SUR
299 0 18 0.194000 1.200000 23.959999 13.389999 # Cc7 SUR
300 0 19 0.194000 0.000000 23.959999 16.740000 # Cc8 SUR
301 0 24 -0.397000 3.600000 24.650000 16.740000 # Cs5 SUR
302 0 25 -0.397000 2.400000 24.650000 13.389999 # Cs6 SUR
303 0 26 -0.397000 1.200000 24.650000 16.740000 # Cs7 SUR
304 0 27 -0.397000 0.000000 24.650000 13.389999 # Cs8 SUR
305 0 28 0.203000 3.610000 0.000000 16.740000 # H SUR
306 0 28 0.203000 2.400000 0.000000 13.389999 # H SUR
307 0 28 0.203000 1.200000 0.000000 16.740000 # H SUR
308 0 28 0.203000 0.000000 0.000000 13.389999 # H SUR
309 0 28 0.203000 3.610000 25.719999 16.740000 # H SUR
310 0 28 0.203000 2.400000 25.719999 13.389999 # H SUR
311 0 28 0.203000 1.200000 25.719999 16.740000 # H SUR
312 0 28 0.203000 0.000000 25.719999 13.389999 # H SUR
313 0 20 -0.397000 3.600000 1.070000 23.440001 # Cs1 SUR
314 0 21 -0.397000 2.400000 1.070000 20.090000 # Cs2 SUR
315 0 22 -0.397000 1.200000 1.070000 23.440001 # Cs3 SUR
316 0 23 -0.397000 0.000000 1.070000 20.090000 # Cs4 SUR
317 0 12 0.194000 3.600000 1.770000 20.090000 # Cc1 SUR
318 0 13 0.194000 2.400000 1.770000 23.440001 # Cc2 SUR
319 0 14 0.194000 1.200000 1.770000 20.090000 # Cc3 SUR
320 0 15 0.194000 0.000000 1.770000 23.440001 # Cc4 SUR
321 0 11 0.000000 3.600000 3.150000 20.090000 # C SUR
322 0 11 0.000000 2.400000 3.150000 23.440001 # C SUR
323 0 11 0.000000 1.200000 3.150000 20.090000 # C SUR
324 0 11 0.000000 0.000000 3.150000 23.440001 # C SUR
325 0 11 0.000000 3.600000 3.850000 23.440001 # C SUR
326 0 11 0.000000 2.400000 3.850000 20.090000 # C SUR
327 0 11 0.000000 1.200000 3.850000 23.440001 # C SUR
328 0 11 0.000000 0.000000 3.850000 20.090000 # C SUR
329 0 11 0.000000 3.600000 5.240000 23.440001 # C SUR
330 0 11 0.000000 2.400000 5.240000 20.090000 # C SUR
331 0 11 0.000000 1.200000 5.240000 23.440001 # C SUR
332 0 11 0.000000 0.000000 5.240000 20.090000 # C SUR
333 0 11 0.000000 3.600000 5.930000 20.090000 # C SUR
334 0 11 0.000000 2.400000 5.930000 23.440001 # C SUR
335 0 11 0.000000 1.200000 5.930000 20.090000 # C SUR
336 0 11 0.000000 0.000000 5.930000 23.440001 # C SUR
337 0 11 0.000000 3.600000 7.310000 20.090000 # C SUR
338 0 11 0.000000 2.400000 7.310000 23.440001 # C SUR
339 0 11 0.000000 1.200000 7.310000 20.090000 # C SUR
340 0 11 0.000000 0.000000 7.310000 23.440001 # C SUR
341 0 11 0.000000 3.600000 8.010000 23.440001 # C SUR
342 0 11 0.000000 2.400000 8.010000 20.090000 # C SUR
343 0 11 0.000000 1.200000 8.010000 23.440001 # C SUR
344 0 11 0.000000 0.000000 8.010000 20.090000 # C SUR
345 0 11 0.000000 3.600000 9.400001 23.440001 # C SUR
346 0 11 0.000000 2.400000 9.400001 20.090000 # C SUR
347 0 11 0.000000 1.200000 9.400001 23.440001 # C SUR
348 0 11 0.000000 0.000000 9.400001 20.090000 # C SUR
349 0 11 0.000000 3.600000 10.090000 20.090000 # C SUR
350 0 11 0.000000 2.400000 10.090000 23.440001 # C SUR
351 0 11 0.000000 1.200000 10.090000 20.090000 # C SUR
352 0 11 0.000000 0.000000 10.090000 23.440001 # C SUR
353 0 11 0.000000 3.600000 11.480000 20.090000 # C SUR
354 0 11 0.000000 2.400000 11.480000 23.440001 # C SUR
355 0 11 0.000000 1.200000 11.480000 20.090000 # C SUR
356 0 11 0.000000 0.000000 11.480000 23.440001 # C SUR
357 0 11 0.000000 3.600000 12.170000 23.440001 # C SUR
358 0 11 0.000000 2.400000 12.170000 20.090000 # C SUR
359 0 11 0.000000 1.200000 12.170000 23.440001 # C SUR